LAMMPS (16 Jul 2018)
echo both

include		in.temp
variable	temperature equal 400.
variable	tempDamp equal 0.1 # approx 0.1 ps
include		in.pressure
variable	pressure equal 1.
variable	pressureDamp equal 1.0
include 	in.seed
variable	seed equal 74581
units		metal
include		in.box
read_data	data.equil
  orthogonal box = (0 0 0) to (21.977 21.977 21.977)
  1 by 2 by 2 MPI processor grid
  reading atoms ...
  250 atoms
  reading velocities ...
  250 velocities

variable 	mass equal 22.98977
mass            1 ${mass}
mass            1 22.98977
include 	in.setup
variable	out_freq equal 500
variable	out_freq2 equal 500

neigh_modify    delay 10 every 1
include		in.na
pair_style      eam/fs
pair_coeff      * * Na_MendelevM_2014.eam.fs Na

timestep	0.002 # According to Frenkel and Smit is 0.001

thermo          ${out_freq}
thermo          500
thermo_style 	custom step temp pe press lx ly lz xy xz yz pxx pyy pzz pxy pxz pyz


restart 	${out_freq} restart.lmp restart2.lmp
restart 	500 restart.lmp restart2.lmp



# NPT

fix             1 all nve
fix             2 all temp/csvr ${temperature} ${temperature} ${tempDamp} ${seed}
fix             2 all temp/csvr 400 ${temperature} ${tempDamp} ${seed}
fix             2 all temp/csvr 400 400 ${tempDamp} ${seed}
fix             2 all temp/csvr 400 400 0.1 ${seed}
fix             2 all temp/csvr 400 400 0.1 74581

velocity        all create ${temperature} ${seed} dist gaussian
velocity        all create 400 ${seed} dist gaussian
velocity        all create 400 74581 dist gaussian

run             5000
Neighbor list info ...
  update every 1 steps, delay 10 steps, check yes
  max neighbors/atom: 2000, page size: 100000
  master list distance cutoff = 11.2
  ghost atom cutoff = 11.2
  binsize = 5.6, bins = 4 4 4
  1 neighbor lists, perpetual/occasional/extra = 1 0 0
  (1) pair eam/fs, perpetual
      attributes: half, newton on
      pair build: half/bin/atomonly/newton
      stencil: half/bin/3d/newton
      bin: standard
Per MPI rank memory allocation (min/avg/max) = 2.995 | 2.995 | 2.995 Mbytes
Step Temp PotEng Press Lx Ly Lz Xy Xz Yz Pxx Pyy Pzz Pxy Pxz Pyz 
       0          400   -257.19306      -1460.9       21.977       21.977       21.977            0            0            0   -1979.0178   -1425.9037   -977.77846    99.484238    478.03123    67.490531 
     500    387.53878   -255.60874   -931.19925       21.977       21.977       21.977            0            0            0   -702.78614    -979.1304   -1111.6812   -125.38245   -337.75207    65.136406 
    1000    407.77272   -254.98451   -906.64403       21.977       21.977       21.977            0            0            0   -869.50573    -367.8839   -1482.5425    643.79087   -119.26478    994.04976 
    1500     390.0179   -254.22879    -386.4935       21.977       21.977       21.977            0            0            0   -320.03334   -694.07885   -145.36832   -524.60298    266.83916   -263.67512 
    2000    375.74384   -255.62945   -1105.8918       21.977       21.977       21.977            0            0            0    170.90622   -1851.4207    -1637.161    655.93179    488.46307   -257.56077 
    2500    446.38296   -255.77364   -749.81892       21.977       21.977       21.977            0            0            0   -634.24094   -832.30648   -782.90934    325.13612   -459.59804   -298.83639 
    3000     403.7484   -255.23244   -783.33564       21.977       21.977       21.977            0            0            0   -619.75099   -653.58507   -1076.6709   -166.89047    277.39155   -113.58325 
    3500    376.10129   -255.18745   -898.16083       21.977       21.977       21.977            0            0            0   -738.37598   -1053.2188   -902.88771    848.56858    -237.7555    251.37635 
    4000     415.9064   -255.36782   -801.29623       21.977       21.977       21.977            0            0            0   -565.14571   -1531.7686   -306.97436    249.98831   -251.30661   -88.139491 
    4500    370.87545   -254.90679   -650.78497       21.977       21.977       21.977            0            0            0   -494.87005   -693.91463   -763.57024    394.72274    508.75904    96.489831 
    5000     399.8257   -255.50031   -938.58566       21.977       21.977       21.977            0            0            0    376.32208   -1472.3892   -1719.6898    2.3823312   -66.904486    28.380706 
Loop time of 1.4713 on 4 procs for 5000 steps with 250 atoms

Performance: 587.235 ns/day, 0.041 hours/ns, 3398.353 timesteps/s
94.3% CPU use with 4 MPI tasks x no OpenMP threads

MPI task timing breakdown:
Section |  min time  |  avg time  |  max time  |%varavg| %total
---------------------------------------------------------------
Pair    | 0.88066    | 0.93568    | 0.98826    |   4.0 | 63.60
Neigh   | 0.017509   | 0.017972   | 0.018265   |   0.2 |  1.22
Comm    | 0.10863    | 0.1616     | 0.21704    |   9.7 | 10.98
Output  | 0.33401    | 0.33403    | 0.33409    |   0.0 | 22.70
Modify  | 0.014587   | 0.015296   | 0.015767   |   0.4 |  1.04
Other   |            | 0.006716   |            |       |  0.46

Nlocal:    62.5 ave 67 max 58 min
Histogram: 2 0 0 0 0 0 0 0 0 2
Nghost:    1090.25 ave 1092 max 1088 min
Histogram: 1 0 0 0 0 1 0 1 0 1
Neighs:    4338.25 ave 4723 max 3617 min
Histogram: 1 0 0 0 0 0 1 0 0 2

Total # of neighbors = 17353
Ave neighs/atom = 69.412
Neighbor list builds = 138
Dangerous builds = 0

unfix		1
unfix		2

reset_timestep	0

timer 		timeout 23:50:00 every 1000
New timer settings: style=normal  mode=nosync  timeout=23:50:00

fix             1 all plumed plumedfile plumed.dat outfile plumed.out
fix             2 all nve
fix             3 all temp/csvr ${temperature} ${temperature} ${tempDamp} ${seed}
fix             3 all temp/csvr 400 ${temperature} ${tempDamp} ${seed}
fix             3 all temp/csvr 400 400 ${tempDamp} ${seed}
fix             3 all temp/csvr 400 400 0.1 ${seed}
fix             3 all temp/csvr 400 400 0.1 74581

run             500000
Per MPI rank memory allocation (min/avg/max) = 2.995 | 3.151 | 3.368 Mbytes
Step Temp PotEng Press Lx Ly Lz Xy Xz Yz Pxx Pyy Pzz Pxy Pxz Pyz 
       0     399.8257   -255.50031   -938.58566       21.977       21.977       21.977            0            0            0    376.32208   -1472.3892   -1719.6898    2.3823312   -66.904486    28.380706 
     500     370.5609   -254.78437   -829.20795       21.977       21.977       21.977            0            0            0   -246.60874   -210.84968   -2030.1654   -32.180671   -126.96354    373.67434 
    1000    417.75333   -255.44866   -943.82327       21.977       21.977       21.977            0            0            0   -798.24534   -956.82791   -1076.3965    534.13713     21.03571   -452.98766 
    1500    402.18473   -255.01269    -660.4225       21.977       21.977       21.977            0            0            0   -134.85274   -688.52069   -1157.8941    190.78612    254.43957     34.75113 
    2000    391.43299    -254.9884   -885.29719       21.977       21.977       21.977            0            0            0   -1816.4382   -454.37759   -385.07583    376.37376   -722.80639    727.03664 
    2500    423.69794   -253.58075   -201.73029       21.977       21.977       21.977            0            0            0     116.0962   -527.84143   -193.44565   -141.95426    240.16693   -869.92656 
    3000    396.75351   -255.57619   -726.69355       21.977       21.977       21.977            0            0            0   -394.69789   -842.70323   -942.67954   -910.86167   -235.39595    104.58115 
    3500    393.40375   -255.58376   -912.04488       21.977       21.977       21.977            0            0            0    -1307.841   -1078.0542   -350.23943   -414.04438    36.535716    182.77074 
    4000    393.40208   -254.33828   -590.56894       21.977       21.977       21.977            0            0            0   -486.56357   -546.17672   -738.96655   -211.82356    -61.01598   -178.78315 
    4500    379.90286   -254.59266   -730.91925       21.977       21.977       21.977            0            0            0   -417.34991   -1123.4644   -651.94343   -213.94199   -236.07189   -1105.5575 
    5000    392.02667   -254.86623   -846.53709       21.977       21.977       21.977            0            0            0    -1485.891    -659.4387   -394.28154    288.74359    201.78481   -392.12291 
    5500    430.37067   -253.73418   -352.13629       21.977       21.977       21.977            0            0            0    -441.0827   -124.54729   -490.77888    547.58901    185.76581    999.58207 
    6000    362.85182   -254.57265   -750.23018       21.977       21.977       21.977            0            0            0   -502.30655   -649.69891   -1098.6851    143.78334   -358.77471   -544.43904 
    6500     419.0336   -253.91619   -257.50964       21.977       21.977       21.977            0            0            0    414.80577   -953.46938   -233.86532   -77.991683   -218.45803    260.02366 
    7000    361.73339   -254.02189    -565.3109       21.977       21.977       21.977            0            0            0   -474.97093   -803.97828    -416.9835   -779.95821   -2.2595106     -194.124 
    7500    394.22657   -254.75883   -929.59397       21.977       21.977       21.977            0            0            0   -1367.5162   -1019.1454   -402.12033    584.66819     432.7184     -801.039 
    8000    417.43208   -255.55033   -858.29821       21.977       21.977       21.977            0            0            0   -635.57132   -1097.4145   -841.90879    683.71078   -567.49595    568.73296 
    8500    392.72947   -255.44427   -868.47183       21.977       21.977       21.977            0            0            0    -758.4303   -790.71039   -1056.2748    241.13232    243.33431   -65.354194 
    9000    367.84273   -254.27588   -616.91029       21.977       21.977       21.977            0            0            0   -766.76491   -237.40491   -846.56106   -73.741619    154.56292   -66.410954 
    9500    372.44971    -254.2736   -400.24957       21.977       21.977       21.977            0            0            0    -743.8494    230.65567   -687.55499   -470.58547    233.67281   -52.384629 
   10000    398.35461   -254.38972    -421.6624       21.977       21.977       21.977            0            0            0   -985.05582   -336.30012    56.368746    36.202101    504.78362   -690.65094 
   10500    380.11984   -255.08115   -832.20521       21.977       21.977       21.977            0            0            0    -494.0967    194.09325   -2196.6122    472.64745    44.536541    157.79558 
   11000    384.52554   -254.40569   -777.45161       21.977       21.977       21.977            0            0            0    -1334.551   -839.08123    -158.7226    615.60973    8.9136954    344.98142 
   11500    384.98172   -255.51092   -907.69993       21.977       21.977       21.977            0            0            0   -662.67814   -1731.0518   -329.36986    169.09254   -480.88373    712.36177 
   12000    396.98897   -254.73594   -453.54412       21.977       21.977       21.977            0            0            0   -655.76212   -85.292904   -619.57733   -479.08941   -59.551007    278.68232 
   12500    396.34464   -255.57671   -871.61806       21.977       21.977       21.977            0            0            0   -907.82429   -710.86178   -996.16812   -417.02763    224.87144    563.39701 
   13000    395.38088   -253.83217   -487.52754       21.977       21.977       21.977            0            0            0    92.232019   -1033.5944   -521.22021    758.55277    219.93022   -138.59378 
   13500    459.35362   -254.09014   -391.27209       21.977       21.977       21.977            0            0            0   -327.31064    -473.2279   -373.27774   -84.485146    6.1222882    487.08576 
   14000    385.95867   -254.35738   -695.97351       21.977       21.977       21.977            0            0            0   -435.45886   -1282.5044   -369.95722    325.39811   -729.02253   -513.43139 
   14500     404.1146   -254.64873   -435.39445       21.977       21.977       21.977            0            0            0   -273.19373   -630.96703    -402.0226   -362.14904   -644.46438   -132.17687 
   15000    426.80528   -256.07877   -1143.2281       21.977       21.977       21.977            0            0            0   -1233.5894   -1695.0054   -501.08943    246.38603     93.83788   -301.09886 
   15500    371.90529   -255.51623   -1014.7975       21.977       21.977       21.977            0            0            0    -603.1594    -1376.494   -1064.7391   -82.993799    886.01104    244.01003 
   16000    399.18714   -255.63004   -875.99366       21.977       21.977       21.977            0            0            0   -1081.5991    -862.9273   -683.45459   -49.751793    8.4228641    300.51467 
   16500    368.28816    -256.3303   -1403.9665       21.977       21.977       21.977            0            0            0   -1203.4921   -1763.8845   -1244.5228   -226.40425    190.26055   -106.11826 
   17000    412.00931    -253.1342   -301.98395       21.977       21.977       21.977            0            0            0    51.107688   -868.63468   -88.424844    113.77014    182.09054   -355.72618 
   17500    405.92496   -254.28246    -560.9818       21.977       21.977       21.977            0            0            0   -708.22098    30.734166   -1005.4586    346.95055    483.86945   -295.19084 
   18000    430.72148    -255.6687   -1009.6133       21.977       21.977       21.977            0            0            0   -589.16221   -1200.3927   -1239.2851   -394.25055    312.45428   -29.545313 
   18500    384.95316   -255.13865    -877.9977       21.977       21.977       21.977            0            0            0   -823.74833   -1245.3998   -564.84491   -897.01416   -149.01049    890.58153 
   19000     370.3187    -253.9629   -580.61773       21.977       21.977       21.977            0            0            0   -617.10693   -1151.3104    26.564142   -376.03271   -253.26035    162.12305 
   19500    416.86717   -255.69401   -990.19632       21.977       21.977       21.977            0            0            0   -1256.7147   -417.11667   -1296.7576   -638.13048    107.43947    187.49255 
   20000    417.88768   -254.74666   -779.01533       21.977       21.977       21.977            0            0            0   -989.57128   -635.38562   -712.08909   -531.46763    523.20517   -251.59665 
   20500     427.7253     -254.626   -566.07122       21.977       21.977       21.977            0            0            0   -449.98085   -258.69352   -989.53929    140.84694    -63.41616   -27.294259 
   21000    418.14232   -255.64026    -893.5217       21.977       21.977       21.977            0            0            0   -1159.2751   -1304.9439   -216.34612   -411.67444   -667.02737   -177.45015 
   21500    417.08171   -253.59298   -232.91196       21.977       21.977       21.977            0            0            0    765.68757   -672.58042   -791.84302    543.21571   -472.48279   -320.60672 
   22000    406.64327   -255.04836   -801.34038       21.977       21.977       21.977            0            0            0   -548.39952   -1174.7373   -680.88436   -322.52937   -306.60336    243.03204 
   22500    398.28302    -254.0295   -351.33743       21.977       21.977       21.977            0            0            0   -885.85807    131.12856   -299.28278    169.42239   -449.85061   -242.63961 
   23000    368.91073   -253.77198   -552.96934       21.977       21.977       21.977            0            0            0   -501.15851   -201.30962   -956.43988   -158.97745   -549.27401   -547.13866 
   23500      429.673    -255.6114   -1083.3397       21.977       21.977       21.977            0            0            0   -395.94098   -811.34324   -2042.7349   -1.6297868     600.6078     132.0163 
   24000    402.35511   -255.65102   -776.74852       21.977       21.977       21.977            0            0            0   -238.22242   -764.34599   -1327.6772   -279.74263    590.83054   -130.99974 
   24500    394.12669   -254.71141   -796.49557       21.977       21.977       21.977            0            0            0   -850.16898    -438.1983   -1101.1194   -295.66949    589.15936    97.384369 
   25000    404.20923   -254.08125   -542.58934       21.977       21.977       21.977            0            0            0    -746.5763    130.79369   -1011.9854    -419.1657   -244.45391   -260.48729 
   25500    408.73876   -254.21589   -420.06493       21.977       21.977       21.977            0            0            0   -238.49027   -899.79891   -121.90562    210.40524   -27.643065    64.765365 
   26000    409.47802   -255.61364   -848.29935       21.977       21.977       21.977            0            0            0   -885.30461   -205.12592   -1454.4675    252.66634    -440.8497    157.70681 
   26500    377.99948   -255.82409    -1207.332       21.977       21.977       21.977            0            0            0   -1268.6227   -1392.3925    -960.9807   -48.709957   -188.64027    145.57487 
   27000    405.06303   -255.96655   -1023.7221       21.977       21.977       21.977            0            0            0   -332.41614    -1494.294   -1244.4563   -518.20732   -181.76743   -54.662637 
   27500    391.85818   -254.53625   -811.74864       21.977       21.977       21.977            0            0            0   -1099.0194    -457.7559   -878.47061   -135.09607   -83.525911  -0.88990166 
   28000    387.82166    -253.3932   -446.88347       21.977       21.977       21.977            0            0            0   -364.02829   -764.01058   -212.61155    66.116732    406.36292    52.737184 
   28500    392.13997   -254.68116   -777.83862       21.977       21.977       21.977            0            0            0   -1098.8703   -938.52069   -296.12482     152.4582    -240.4722    94.561156 
   29000    410.19397   -254.23223   -616.30584       21.977       21.977       21.977            0            0            0   -841.44996   -253.35927   -754.10828    -622.1011   -62.409162    1010.2128 
   29500    410.36032   -253.96436    -483.0582       21.977       21.977       21.977            0            0            0      -1057.1    155.11693   -547.19152    560.72619    346.10269    -451.0516 
   30000     381.0708   -256.20948   -1301.3905       21.977       21.977       21.977            0            0            0   -983.50915   -1189.4473   -1731.2152   -143.51485   -387.46472    44.903339 
   30500    389.14696   -255.19804   -805.78481       21.977       21.977       21.977            0            0            0   -799.42874   -1149.6261   -468.29961   -326.89136    274.08061    543.51783 
   31000    388.02747   -255.24007   -923.18563       21.977       21.977       21.977            0            0            0    -1377.913   -542.69237    -848.9515   -576.50749   -680.54995    228.54307 
   31500    404.87159   -256.14223   -1105.2833       21.977       21.977       21.977            0            0            0   -1556.2657   -542.48208   -1217.1022   -438.90508   -514.76857   -11.262755 
   32000    449.34208   -255.72616   -833.94463       21.977       21.977       21.977            0            0            0   -707.02453   -1557.6659   -237.14347   -865.44949   -139.16911     371.6009 
   32500    422.11866    -255.9137   -1007.8136       21.977       21.977       21.977            0            0            0   -875.52504   -1055.3724   -1092.5433    494.35561    327.51415   -916.62551 
   33000    425.59276   -255.47645   -762.62639       21.977       21.977       21.977            0            0            0   -810.95072    -733.5685   -743.35996   -458.02451    435.42966    262.87279 
   33500    369.99195   -253.46983   -432.91179       21.977       21.977       21.977            0            0            0   -719.50994    94.423395   -673.64883    516.93451    598.29294    463.17755 
   34000    396.82304    -253.9921   -577.22779       21.977       21.977       21.977            0            0            0   -1174.2286   -561.03008    3.5752941   -245.67516    498.40909     151.4986 
   34500    400.69277   -254.14966   -316.97677       21.977       21.977       21.977            0            0            0    67.851186   -600.35444   -418.42706    84.322955   -321.38284    299.35437 
   35000    383.94792    -255.2857    -835.1829       21.977       21.977       21.977            0            0            0   -51.555353   -2004.9651   -449.02822   -2.0349963    100.01891    301.95502 
   35500    396.96701   -254.62142   -725.37964       21.977       21.977       21.977            0            0            0   -660.69388   -618.66222   -896.78281    535.21279   -554.35476   -310.34709 
   36000    376.96622   -255.15933    -966.9938       21.977       21.977       21.977            0            0            0   -1836.6725   -273.14764   -791.16127   -170.61174   -203.01603   -33.862613 
   36500    422.45426   -256.25744   -1069.1268       21.977       21.977       21.977            0            0            0   -1257.2425   -349.54448   -1600.5934    153.99241   -719.92309    33.749907 
   37000    422.20502   -255.56099   -669.52588       21.977       21.977       21.977            0            0            0   -571.38197   -399.95146   -1037.2442    255.00061    145.20563    154.36189 
   37500    424.37368   -254.98375    -578.5498       21.977       21.977       21.977            0            0            0    268.55805   -289.63045    -1714.577   -386.71775    60.731037   -179.41728 
   38000    401.64445   -254.92906   -627.23056       21.977       21.977       21.977            0            0            0    20.859459   -825.82671   -1076.7244   -116.06042    163.49024     203.7427 
   38500     445.8102   -255.05719   -698.75716       21.977       21.977       21.977            0            0            0   -599.20204   -638.83266   -858.23677   -23.962917   -14.095762   -177.92129 
   39000    370.62309   -253.19848    -247.3477       21.977       21.977       21.977            0            0            0     383.0926   -858.76485   -266.37086    326.36793   -10.414433    421.03601 
   39500     417.9385    -254.8003   -646.93834       21.977       21.977       21.977            0            0            0   -854.83949   -886.14481   -199.83074   -185.83958    765.37507    80.377233 
   40000    414.59801   -255.55157   -897.50905       21.977       21.977       21.977            0            0            0   -771.84834   -1253.1559   -667.52288   -167.05485    467.11682    149.78073 
   40500    426.44593   -254.79031   -651.87316       21.977       21.977       21.977            0            0            0   -559.45019   -912.51129   -483.65801   -155.23213    120.65485    585.61558 
   41000    376.67589   -254.75829   -779.30144       21.977       21.977       21.977            0            0            0   -427.10086   -921.53724   -989.26622   -435.14023    190.61654    -175.0286 
   41500    373.91629   -255.49223   -930.00007       21.977       21.977       21.977            0            0            0   -1078.6001   -1336.8149   -374.58523    366.05626    321.59021   -219.39012 
   42000    407.34926    -255.4333   -806.99797       21.977       21.977       21.977            0            0            0   -1012.5904   -588.89571   -819.50783   -38.485879   -254.26031    105.58576 
   42500    406.48792   -254.72417   -726.61765       21.977       21.977       21.977            0            0            0   -1141.4595   -454.91792   -583.47556    42.997785   -13.210352    70.128022 
   43000    395.50543   -255.16487   -824.47755       21.977       21.977       21.977            0            0            0   -1151.9222    -669.7602   -651.75025   -494.66144    72.023615   -46.255722 
   43500    434.31907   -254.35029   -378.78626       21.977       21.977       21.977            0            0            0   -914.28631   -1002.4586    780.38617   -457.53628    499.30974    672.83271 
   44000    438.66125   -254.98313   -671.05387       21.977       21.977       21.977            0            0            0   -1252.5331    -267.9838   -492.64473   -154.83234    424.50791    488.58037 
   44500    385.23209   -255.79636   -989.34581       21.977       21.977       21.977            0            0            0   -255.26352   -1235.1597   -1477.6142   -311.55765   -331.15745   -188.64427 
   45000    396.95662   -254.72548   -704.84024       21.977       21.977       21.977            0            0            0   -1131.2947   -565.89474   -417.33126     200.8128   -442.54294   -336.17973 
   45500    401.68495   -254.92726    -659.7647       21.977       21.977       21.977            0            0            0   -1803.4137   -333.42705    157.54665   -198.59639   -141.13797    4.6283652 
   46000    437.46331    -254.2209   -379.64115       21.977       21.977       21.977            0            0            0   -590.48413   -302.73213   -245.70719    13.657424   -503.05268   -459.00382 
   46500    420.91778   -254.96931   -713.50425       21.977       21.977       21.977            0            0            0   -1542.7814   -651.62209    53.890714    917.60815   -737.51872   -169.22895 
   47000      379.559   -255.33869   -1012.4503       21.977       21.977       21.977            0            0            0    -2176.267   -1013.8936     152.8098   -28.872789   -35.773003    422.80702 
   47500    399.73145   -254.06735   -380.90187       21.977       21.977       21.977            0            0            0   -263.68902    -639.6697   -239.34689   -302.81397   -29.309535    786.97759 
   48000    362.31127   -253.62566   -348.30334       21.977       21.977       21.977            0            0            0    134.91303    23.617494   -1203.4406   -43.179489   -18.169385    455.96475 
   48500    418.68839    -255.6673   -891.56686       21.977       21.977       21.977            0            0            0   -1056.1169   -1080.6142   -537.96951   -287.56854    -730.6866    1028.5564 
   49000    424.42095    -254.4135   -285.96391       21.977       21.977       21.977            0            0            0   -24.884326   -413.65465   -419.35274   -599.46451    -992.9072   -190.36691 
   49500    386.16444   -255.79842   -1265.8082       21.977       21.977       21.977            0            0            0   -616.73366   -1539.2548   -1641.4361    90.487526    295.79578     275.5757 
   50000     387.0038    -254.3518   -561.15834       21.977       21.977       21.977            0            0            0    -735.5963   -665.04859   -282.83014    79.135531    311.74081    247.71378 
   50500    384.73206   -254.78722   -978.54815       21.977       21.977       21.977            0            0            0   -2010.4973   -767.43978   -157.70734   -258.66875   -66.275603   -95.303414 
   51000    431.54337   -255.11419   -847.29667       21.977       21.977       21.977            0            0            0   -947.54212   -482.64272   -1111.7052    649.17963   -154.67155   -225.54988 
   51500    383.29947   -256.23897   -1227.8059       21.977       21.977       21.977            0            0            0   -694.58728   -1310.0016   -1678.8287   -720.62034   -655.93241   -113.34838 
   52000    446.42577   -254.36201   -358.16501       21.977       21.977       21.977            0            0            0   -710.24481    -363.9761  -0.27411624     707.3948    530.08999   -63.087989 
   52500    374.51834   -255.13262   -1033.8511       21.977       21.977       21.977            0            0            0   -711.62951   -1857.9688   -531.95488    31.317388    202.90008   -268.88033 
   53000    429.63159    -255.4743   -698.23691       21.977       21.977       21.977            0            0            0   -973.25152   -114.39544   -1007.0638    980.62057    80.246475    -709.3591 
   53500    398.61105   -255.04765   -833.75523       21.977       21.977       21.977            0            0            0   -584.46036   -697.25006   -1219.5553    65.864424   -275.44179   -464.03438 
   54000    390.33415   -255.52436   -919.27947       21.977       21.977       21.977            0            0            0   -693.67347   -1135.5792   -928.58575   -416.46264     -373.163    33.756666 
   54500     388.4236   -254.35713   -794.23714       21.977       21.977       21.977            0            0            0   -928.64084    -880.8929   -573.17768   -152.79814    355.35531   -92.309405 
   55000    443.85422   -255.31977   -520.20426       21.977       21.977       21.977            0            0            0   -667.37888   -691.14895   -202.08495    401.88445    259.41324    45.557316 
   55500    441.34541   -255.77418   -951.39208       21.977       21.977       21.977            0            0            0   -2186.5998    90.673091   -758.24957   -410.79545   -87.014463    89.511126 
   56000    413.13029   -255.10049   -786.58068       21.977       21.977       21.977            0            0            0    -417.1502   -785.16138   -1157.4305    215.87773   -592.01911   -569.11247 
   56500    413.19219   -254.94501   -848.93893       21.977       21.977       21.977            0            0            0   -309.33011   -1246.2015   -991.28523    362.52261   -468.04793    107.85634 
   57000    397.66531   -255.62503   -1238.5605       21.977       21.977       21.977            0            0            0   -657.76079   -1316.3407     -1741.58    36.162711   -499.01881   -174.23694 
   57500    408.27027   -254.76088   -723.33955       21.977       21.977       21.977            0            0            0   -596.58921   -976.24234    -597.1871   -574.09777   -374.04927    569.26834 
   58000     415.9892   -254.26086   -452.27026       21.977       21.977       21.977            0            0            0    -98.09131   -269.04352   -989.67595   -80.414686    54.588608   -339.82315 
   58500    422.23373   -254.65978   -550.70268       21.977       21.977       21.977            0            0            0   -143.09118   -1115.1791   -393.83776    535.99157   -124.91684   -595.72402 
   59000    399.98214   -254.99791   -710.60343       21.977       21.977       21.977            0            0            0   -641.92277   -906.16892   -583.71861   -13.828748    217.85474    324.04308 
   59500    397.49094   -254.35936   -572.92884       21.977       21.977       21.977            0            0            0   -1275.1868    84.352671   -527.95242   -74.903723   -544.48141    146.09693 
   60000    397.27436   -255.15437   -825.45821       21.977       21.977       21.977            0            0            0   -1599.7823   -22.827735    -853.7646     144.3865   -498.94968    54.880038 
   60500      408.761   -254.51816   -745.60201       21.977       21.977       21.977            0            0            0   -1207.2195   -179.49332   -850.09317    93.395137    -29.43372   -314.00745 
   61000    407.49512   -255.07832   -650.75336       21.977       21.977       21.977            0            0            0   -2001.1266    593.47023   -544.60371    121.83045    263.43704   -343.80495 
   61500    354.15063   -255.98837   -1206.9689       21.977       21.977       21.977            0            0            0   -863.87951   -1151.9183   -1605.1087   -357.48406   -7.6937465    667.43283 
   62000    429.62924   -256.10477   -955.15144       21.977       21.977       21.977            0            0            0   -956.02038   -697.91821   -1211.5157    408.89335   -167.50138    117.24401 
   62500    413.48786   -254.35706   -555.49875       21.977       21.977       21.977            0            0            0   -1329.2917    741.13999   -1078.3446    519.34747   -173.23688   -439.02881 
   63000      414.872   -254.61442    -442.6491       21.977       21.977       21.977            0            0            0    464.21903    -1038.349    -753.8173   -313.57374   -60.175712    252.06134 
   63500    399.33386   -254.75013   -640.71006       21.977       21.977       21.977            0            0            0   -784.20147   -1177.5496    39.620921    -56.57895    9.0279808    335.86345 
   64000    390.29654   -255.09272   -922.47939       21.977       21.977       21.977            0            0            0   -792.67376   -896.91839    -1077.846   -841.36353   -781.09472   -151.46326 
   64500    401.39763   -255.15904   -688.42994       21.977       21.977       21.977            0            0            0   -528.13857    -439.5536   -1097.5977   -176.52231    474.96976    18.106248 
   65000    415.39834   -254.60714   -480.41803       21.977       21.977       21.977            0            0            0   -118.24943   -291.63385   -1031.3708    -331.4543    576.44711   -103.29335 
   65500    381.17324   -253.99888   -446.64514       21.977       21.977       21.977            0            0            0   -505.49298    -274.2714   -560.17103  -0.92692635    257.47745   -149.90318 
   66000    416.75517   -255.88937   -1162.4801       21.977       21.977       21.977            0            0            0   -775.46337    -873.6791   -1838.2978    44.256318    543.75384    89.038213 
   66500    395.24888   -255.49886   -946.89136       21.977       21.977       21.977            0            0            0    -1575.504   -578.90891    -686.2612   -66.494599   -632.41691    691.88103 
   67000    370.40076   -255.05979    -982.5355       21.977       21.977       21.977            0            0            0   -452.39459   -1737.8397   -757.37225    -8.235532    -498.3199    220.18902 
   67500    387.77984   -255.07664   -754.79057       21.977       21.977       21.977            0            0            0   -1215.5288   -268.57379   -780.26909     513.9134   -291.21189    646.47524 
   68000    436.19869   -254.57329   -472.29372       21.977       21.977       21.977            0            0            0   -636.09461   -58.390761   -722.39579   -243.19208    317.64557    -607.9987 
   68500    387.48015   -254.96176   -886.46244       21.977       21.977       21.977            0            0            0   -1088.9594   -1044.1054   -526.32247    241.44999   -308.05375   -489.42246 
   69000    397.58248   -254.07384   -349.59705       21.977       21.977       21.977            0            0            0   -506.40754   -403.72464   -138.65898    144.58479   -260.48056    69.387739 
   69500    408.60801   -255.11389   -665.22977       21.977       21.977       21.977            0            0            0   -864.54561   -488.81442   -642.32929   -178.94181    127.28178    519.95403 
   70000    422.90112   -254.98677   -725.65277       21.977       21.977       21.977            0            0            0   -725.55992   -119.36026   -1332.0381   -310.45753    60.463344    127.39158 
   70500    399.35069   -255.65629   -961.21451       21.977       21.977       21.977            0            0            0   -62.867635   -1214.1904   -1606.5855    46.919641    406.82033     316.6708 
   71000    383.69201   -255.51528   -985.20604       21.977       21.977       21.977            0            0            0   -1213.7236   -1552.5088   -189.38571    425.45963    103.86508   -573.24601 
   71500    392.75207   -255.44406   -862.43485       21.977       21.977       21.977            0            0            0   -1246.9577   -694.45235   -645.89448    21.674462    17.247293   -125.51737 
   72000    394.83594   -255.37462    -1005.894       21.977       21.977       21.977            0            0            0   -1418.3741   -1144.7051    -454.6027    86.498382    367.25626    506.22517 
   72500     395.2256   -255.02359   -754.82898       21.977       21.977       21.977            0            0            0     467.2681   -1865.7557   -865.99938    -206.3155   -262.55728   -87.154421 
   73000    417.22795   -254.91695   -657.13931       21.977       21.977       21.977            0            0            0   -606.97503   -516.81943   -847.62346    679.51704    -34.29685    108.70657 
   73500    419.92678    -254.5756    -578.7521       21.977       21.977       21.977            0            0            0   -750.13924   -207.32923   -778.78783   -163.91009   -488.03232    244.42506 
   74000      427.974    -254.5087   -389.04606       21.977       21.977       21.977            0            0            0   -80.241171   -695.62895   -391.26806    94.997319   -292.29177     508.7541 
   74500    386.44958   -254.37402   -656.55223       21.977       21.977       21.977            0            0            0   -79.337826     -723.541   -1166.7779    6.6124806    193.51504   -402.86894 
   75000    428.04867   -255.43028   -854.37232       21.977       21.977       21.977            0            0            0   -1177.8539   -678.23117   -707.03189    -676.0396   -358.61876    90.505284 
   75500    370.32235   -255.22722    -996.3625       21.977       21.977       21.977            0            0            0   -1797.7548   -1104.5923   -86.740376   -894.80002   -449.24022    242.92646 
   76000    399.42305   -255.73692   -964.60695       21.977       21.977       21.977            0            0            0   -1134.8889   -49.312664   -1709.6192   -59.943003   -514.16755   -77.158029 
   76500     406.3614   -255.17658   -960.94193       21.977       21.977       21.977            0            0            0   -1221.2095   -235.32417   -1426.2921   -356.40936    801.08213   -38.925249 
   77000    432.56561   -255.13683   -551.19742       21.977       21.977       21.977            0            0            0   -1086.6242   -688.44018    121.47217   -13.387032    201.74543    -294.9654 
   77500    375.80876   -255.64133   -999.81511       21.977       21.977       21.977            0            0            0   -1235.3508   -1011.4069   -752.68761     501.9234   -898.17442    452.35134 
   78000    430.98859   -253.57754   -232.55227       21.977       21.977       21.977            0            0            0   -36.860519   -354.08434   -306.71195    53.549861    622.48701   -221.11282 
   78500    399.18656   -254.63671   -689.95424       21.977       21.977       21.977            0            0            0   -1546.9187   -539.13079    16.186726   -350.11044    197.21538   -137.57684 
   79000    419.85971   -255.25187   -800.94044       21.977       21.977       21.977            0            0            0   -1590.4895   -1188.1892     375.8574    2.3449529    445.76206   -154.76986 
   79500    417.95833   -254.26519   -567.05719       21.977       21.977       21.977            0            0            0   -762.63577   -368.86678   -569.66903   -240.85952    384.79018   -196.15744 
   80000    402.38459   -254.68145   -536.07062       21.977       21.977       21.977            0            0            0   -43.423183   -819.01874   -745.76993   -407.12993    -554.4566   -971.85134 
   80500    393.69157   -253.36795   -236.16429       21.977       21.977       21.977            0            0            0    139.35824    407.55933   -1255.4104    -256.0163    640.85999    23.830521 
   81000     429.1183   -254.94712   -759.87745       21.977       21.977       21.977            0            0            0   -823.21821   -716.58983   -739.82431   -19.613141    253.37093    94.902851 
   81500    403.67587   -255.04113   -696.02172       21.977       21.977       21.977            0            0            0   -701.61997   -834.70397   -551.74123    135.17604   -75.399987   -92.256221 
   82000    400.69912   -253.81515   -576.86688       21.977       21.977       21.977            0            0            0   -564.35323   -956.18449   -210.06291   -344.16771    328.52304    579.26151 
   82500    382.60734   -255.15654   -843.63206       21.977       21.977       21.977            0            0            0    -909.4708   -870.78824   -750.63713    520.09632     77.41991    236.70716 
   83000    444.29607   -255.33009   -541.03684       21.977       21.977       21.977            0            0            0   -1062.2836   -180.04391   -380.78302   -370.38126   -125.73106   -87.961912 
   83500    395.34553   -254.79096    -618.2021       21.977       21.977       21.977            0            0            0   -437.05542   -879.61521   -537.93566     209.1155   -529.43959    147.24005 
   84000    368.37408   -256.35224   -1254.2786       21.977       21.977       21.977            0            0            0   -2228.3015   -1099.5174   -435.01684    255.92948    271.07878    -25.89558 
   84500    412.66854   -255.25621   -662.45081       21.977       21.977       21.977            0            0            0   -1101.1813   -830.88116   -55.289975    295.27397    532.46444    508.13683 
   85000    452.41506   -254.72243   -613.33243       21.977       21.977       21.977            0            0            0   -370.68515   -1156.2889    -313.0232    53.181813   -402.82804    460.77369 
   85500    426.38339   -253.88689   -382.69351       21.977       21.977       21.977            0            0            0   -480.58544   -752.64764    85.152553   -146.00932   -141.04988     643.9253 
   86000     375.5601   -255.44328   -880.37693       21.977       21.977       21.977            0            0            0   -1300.0249   -714.73879   -626.36708    230.74792    83.981233    410.92974 
   86500    387.78227   -255.78568   -1194.8102       21.977       21.977       21.977            0            0            0   -1451.4643   -874.72754   -1258.2388    222.15644   -163.95005   -374.12808 
   87000    444.84776   -254.12775   -558.27939       21.977       21.977       21.977            0            0            0   -644.48926   -969.96097   -60.387934    223.66069   -220.87938   -2.6798549 
   87500     410.9632   -254.44238   -578.36103       21.977       21.977       21.977            0            0            0   -349.43296   -1288.0635   -97.586602    220.87491    336.41641   -151.91437 
   88000     409.7792   -253.61481   -290.81496       21.977       21.977       21.977            0            0            0   -80.817135   -117.40703   -674.22071    496.89515    270.00958   -230.51974 
   88500    372.69426   -254.70649   -808.34066       21.977       21.977       21.977            0            0            0   -650.53744   -1071.8254   -702.65919   -312.35458    149.83542    278.78629 
   89000    421.53041   -255.12913   -673.38201       21.977       21.977       21.977            0            0            0   -101.59027   -1184.4546   -734.10112   -380.84541    164.35786   -56.557364 
   89500    405.82329   -254.97543   -790.65233       21.977       21.977       21.977            0            0            0   -812.06016   -353.05992   -1206.8369    149.60506   -303.94637    470.66654 
   90000    425.40989   -254.72581   -820.67244       21.977       21.977       21.977            0            0            0   -199.48807   -1082.5896   -1179.9397    19.040884     362.4288    170.87035 
   90500    404.40703    -253.6462   -459.02261       21.977       21.977       21.977            0            0            0    -652.4315   -675.55823   -49.078119   -839.32226   -418.62331   -566.63329 
   91000    393.04205    -254.6809   -643.15269       21.977       21.977       21.977            0            0            0   -406.44281   -1126.3732   -396.64212    30.847095   -187.66175   -571.89226 
   91500    382.51705   -255.93225   -1102.1781       21.977       21.977       21.977            0            0            0   -784.08203   -1388.0198   -1134.4326    151.49512   -389.97677    1332.0882 
   92000    383.76869   -254.13222   -645.04591       21.977       21.977       21.977            0            0            0   -506.57023   -613.71947   -814.84803      61.7887   -179.09834     816.0099 
   92500    406.63471   -253.58587   -94.611139       21.977       21.977       21.977            0            0            0   -251.98067    -88.33497    56.482218   -41.778241    192.98561    768.78796 
   93000    414.97424   -255.27029   -765.87877       21.977       21.977       21.977            0            0            0   -870.94505   -744.89062   -681.80064    369.04606   -520.35545   -160.08318 
   93500    389.37776   -254.80578   -787.22202       21.977       21.977       21.977            0            0            0   -799.22754   -1328.8848   -233.55366   -509.63789   -152.74672   -52.913185 
   94000    397.05513   -254.82359    -586.3088       21.977       21.977       21.977            0            0            0    251.16731   -809.87409   -1200.2196   -416.26532   0.45306971   -236.61266 
   94500    385.95843   -256.57235    -1228.123       21.977       21.977       21.977            0            0            0   -1784.9904   -1101.6685    -797.7101   -206.63971   -234.24803   -89.541405 
   95000     430.7986     -255.527   -929.54639       21.977       21.977       21.977            0            0            0   -217.35897   -577.03754   -1994.2427    146.46668    672.24333   -633.77437 
   95500    442.30813    -255.3532   -873.95353       21.977       21.977       21.977            0            0            0   -1090.3452   -1025.2561   -506.25929   -313.25764   -632.27565   -170.84413 
   96000    418.06573   -253.48275   -361.57939       21.977       21.977       21.977            0            0            0     -389.567   -523.82186   -171.34932     75.93277    512.99475   -1.2987175 
   96500    395.61595   -254.72443   -784.05831       21.977       21.977       21.977            0            0            0   -220.48893   -1216.2903   -915.39566    76.435313    208.83898   -2.0307864 
   97000    387.77137   -254.73025   -610.92618       21.977       21.977       21.977            0            0            0   -1087.0993   -182.79543   -562.88378   -225.71701    299.68349    531.19446 
   97500    361.10452   -253.98634   -501.46356       21.977       21.977       21.977            0            0            0   -334.09149   -426.96967   -743.32953    -69.99672    -256.1243   -640.92432 
   98000      409.471   -255.14412    -608.5754       21.977       21.977       21.977            0            0            0    -638.2227   -149.51012   -1037.9934   -180.02128     509.0226    399.33867 
   98500    394.17159   -254.55642   -827.84188       21.977       21.977       21.977            0            0            0   -737.18898   -486.79747   -1259.5392    509.47847    67.220662   -298.81133 
   99000    385.70611   -254.44435   -569.02312       21.977       21.977       21.977            0            0            0   -1224.0817   -811.62223    328.63457    258.37934    478.53961    361.06119 
   99500    411.54286   -254.13488   -391.78957       21.977       21.977       21.977            0            0            0   -1166.3703    245.83475   -254.83314    455.66312    189.26175    358.05581 
  100000    420.86479   -254.60425   -671.76593       21.977       21.977       21.977            0            0            0    -540.7996   -1230.2149   -244.28331    139.41143    512.16383    414.43299 
  100500    419.69506    -256.1341   -992.28996       21.977       21.977       21.977            0            0            0   -470.42241   -1346.0417   -1160.4058   -209.35144    707.76309    29.268586 
  101000    377.14953   -255.56915   -823.95386       21.977       21.977       21.977            0            0            0   -92.812271   -1369.8449   -1009.2045     234.9422    74.384797   -8.8177113 
  101500    423.09411   -255.30384   -728.27306       21.977       21.977       21.977            0            0            0   -1116.9966   -1103.0693    35.246728    586.02577   -71.789434    332.89121 
  102000     404.7258   -255.59905   -813.47066       21.977       21.977       21.977            0            0            0   -549.51952   -985.08763   -905.80482    217.99168   -345.54664    810.15069 
  102500    398.70419   -254.04586   -487.68078       21.977       21.977       21.977            0            0            0   -945.48289   -184.04208   -333.51735   -374.37932   -1045.2681    191.32769 
  103000    399.05595   -253.72273   -180.19847       21.977       21.977       21.977            0            0            0   -314.89652   -459.21427    233.51537     576.1476   -4.6158571   -109.87508 
  103500    397.18844    -255.4858    -1077.231       21.977       21.977       21.977            0            0            0   -858.13475   -536.47961   -1837.0787    46.796844   -96.666588    795.27946 
  104000    396.62073   -254.43128   -640.68575       21.977       21.977       21.977            0            0            0   -910.93822    -886.8251   -124.29393     367.7117    102.31332   -227.34628 
  104500    394.85184   -254.58252   -760.04457       21.977       21.977       21.977            0            0            0   -658.40103   -458.92596   -1162.8067    173.13438    159.44002    363.80753 
  105000    368.35969   -255.19199   -846.62389       21.977       21.977       21.977            0            0            0   -1714.6283   -645.84786   -179.39553    -226.0703    244.95171    27.921653 
  105500    391.16908   -254.14487   -407.89032       21.977       21.977       21.977            0            0            0   -971.03016   -356.81286    104.17205   -24.096237   -452.16659    3.3690511 
  106000    387.54007   -253.77693   -366.39742       21.977       21.977       21.977            0            0            0   -1166.0114   -416.80308    483.62227   -195.29701   -9.3690508   -324.58464 
  106500    386.34477   -255.21906   -1047.1081       21.977       21.977       21.977            0            0            0   -1152.2866   -1046.7459   -942.29173   -596.60363   -300.02985    58.391214 
  107000    394.20449   -254.43128   -666.19731       21.977       21.977       21.977            0            0            0   -334.04647   -490.15016   -1174.3953   -109.14828    966.81683    -210.8258 
  107500    401.91936   -254.91368   -724.04691       21.977       21.977       21.977            0            0            0    39.903972   -1356.1984   -855.84634   -72.965587   -177.69169    -365.6599 
  108000    446.54152   -254.24832   -454.86935       21.977       21.977       21.977            0            0            0    -1646.365    107.74401    174.01298    474.67152   -400.50369    575.18158 
  108500    387.20714   -255.83022   -1198.5918       21.977       21.977       21.977            0            0            0   -1108.8172   -1048.5477   -1438.4104    102.10715    262.59385   -266.87497 
  109000    404.09683   -255.08037   -676.68311       21.977       21.977       21.977            0            0            0     149.5648    -1017.595   -1162.0191     298.0784    361.28018    70.319898 
  109500     401.6095   -256.47819   -940.29891       21.977       21.977       21.977            0            0            0   -1805.5769   -379.53181   -635.78807   -151.62614   -141.57731    265.31133 
  110000    396.52273   -255.59383   -1001.9914       21.977       21.977       21.977            0            0            0   -1381.4481   -999.43686   -625.08917   -191.48408    366.48535    87.888313 
  110500    387.28508   -253.96473   -449.09507       21.977       21.977       21.977            0            0            0    110.22096   -157.82076   -1299.6854    291.91969    481.93004    361.06034 
  111000    411.67338   -255.66098   -946.41979       21.977       21.977       21.977            0            0            0   -502.11135   -511.83988   -1825.3081   -374.71421    244.74975   -243.52813 
  111500    394.79595   -255.16502   -718.56958       21.977       21.977       21.977            0            0            0   -1216.0114    37.570665   -977.26803    265.15997    134.52351    92.128286 
  112000     392.3531   -255.04943   -755.30957       21.977       21.977       21.977            0            0            0   -1515.2691    26.673728   -777.33336   -171.76646   -279.32833   -796.46314 
  112500     367.0116   -254.89892   -748.54858       21.977       21.977       21.977            0            0            0   -667.18562   -1237.6652   -340.79491   -536.45541    369.72773   -139.75527 
  113000    393.34697   -254.96702   -746.50646       21.977       21.977       21.977            0            0            0   -788.25629   -357.98011    -1093.283    355.12487   -610.64134    470.69748 
  113500    398.20537   -255.10645   -838.95861       21.977       21.977       21.977            0            0            0    -780.7464   -227.78884   -1508.3406    248.38116    25.903758   -253.73509 
  114000    409.02131   -255.55908   -854.81381       21.977       21.977       21.977            0            0            0   -567.71796   -1333.8333   -662.89022    275.38584   -120.76663    390.49657 
  114500    397.18451   -255.23138   -1016.7409       21.977       21.977       21.977            0            0            0   -265.86708   -1194.7326   -1589.6231   -406.57794   -420.08533   -216.42721 
  115000    426.04065   -254.86706   -520.41654       21.977       21.977       21.977            0            0            0   -263.74463   -417.71889   -879.78611   -112.96356   -23.605856    298.60884 
  115500    396.73897   -255.24484   -869.92639       21.977       21.977       21.977            0            0            0   -2077.1353   -525.48403   -7.1598181    514.80393     67.17483   -525.77785 
  116000    417.69761   -255.33518   -701.24962       21.977       21.977       21.977            0            0            0   -504.14181   -769.82995    -829.7771   -345.97603    751.75198   -554.88388 
  116500    396.38991   -253.65699   -514.39245       21.977       21.977       21.977            0            0            0   -92.596475   -1343.7516   -106.82924   -123.63825   -253.47077    554.21547 
  117000    401.77285   -254.60196   -644.59023       21.977       21.977       21.977            0            0            0   -786.22733   -488.34481   -659.19855    242.64756   -471.42697   -193.55246 
  117500    394.15985   -256.02115   -972.68148       21.977       21.977       21.977            0            0            0   -1615.4208    -1335.205    32.581324   -17.134767    464.41958   -361.36448 
  118000     399.4387   -254.55143   -616.33639       21.977       21.977       21.977            0            0            0    -643.6923   -404.52913   -800.78774   -172.59751   -60.365078    125.32771 
  118500    400.40197   -253.69676   -397.60989       21.977       21.977       21.977            0            0            0   -346.28465   -615.14221    -231.4028   -172.02989   -331.75249   -394.21848 
  119000    385.51113   -254.73996   -796.52672       21.977       21.977       21.977            0            0            0   -1035.1209   -1251.6018   -102.85751   -467.97557   -53.087913    266.02561 
  119500      413.837   -253.26631   -2.0114019       21.977       21.977       21.977            0            0            0      407.581    -156.4499    -257.1653   -162.32421   -456.02135    -380.2795 
  120000     389.7169   -254.68476   -702.74342       21.977       21.977       21.977            0            0            0   -819.69007   -579.18084   -709.35937   -543.75752    235.86973    523.15239 
  120500    381.22937   -254.51822   -712.89655       21.977       21.977       21.977            0            0            0   -703.17245   -715.67378   -719.84343   -912.24498    191.84086    2.2364005 
  121000    419.70788   -254.53308   -405.79709       21.977       21.977       21.977            0            0            0   -385.39125    -731.0331   -100.96693   -1224.6981    505.86418   -479.27633 
  121500    405.12878   -254.09261   -374.04613       21.977       21.977       21.977            0            0            0    418.06866   -248.68967   -1291.5174    256.37417   -610.54744    499.57224 
  122000     436.5347   -253.75658   -250.90124       21.977       21.977       21.977            0            0            0   -218.55799   -833.06699    298.92126    827.97381    37.362745    490.73116 
  122500    416.19133   -255.09433   -896.83084       21.977       21.977       21.977            0            0            0   -1814.7165    318.50823   -1194.2842    272.54237    7.0549206    609.89921 
  123000    386.98245   -254.91901   -923.38731       21.977       21.977       21.977            0            0            0   -1431.4549   -649.44618    -689.2608   -569.31328   -53.404144    47.436697 
  123500    441.23981   -254.16333   -595.47013       21.977       21.977       21.977            0            0            0   -647.23683   -650.10348   -489.07008    488.77025    410.25195   -87.308852 
  124000    438.24771   -254.85262   -731.00791       21.977       21.977       21.977            0            0            0   -1293.6252   -124.91594   -774.48259   -218.62065    155.36542   -12.000353 
  124500    368.33278   -255.22678   -829.48936       21.977       21.977       21.977            0            0            0   -940.16279   -517.14053   -1031.1647    66.030498    85.170161   -144.19335 
  125000    371.54774   -255.00773   -867.16001       21.977       21.977       21.977            0            0            0   -676.49437   -1234.5051   -690.48051   -506.16384   -495.59707   -316.48947 
  125500    435.79653   -253.66649   -198.74074       21.977       21.977       21.977            0            0            0    38.027871   -1089.5026    455.25247   -328.52653     775.2575    148.99458 
  126000    423.01821   -255.06807   -973.96894       21.977       21.977       21.977            0            0            0   -1274.3478   -849.81955   -797.73942    230.67775    519.88877   -177.15374 
  126500    362.06917   -254.17747   -579.81192       21.977       21.977       21.977            0            0            0   -862.42631   -656.86913   -220.14033    454.13054    434.04648   -785.73808 
  127000    368.16334   -254.14866   -668.22818       21.977       21.977       21.977            0            0            0   -1232.5929   -791.83276    19.741146    258.96193   -256.02268    114.42112 
  127500    412.24091   -255.13454   -927.91807       21.977       21.977       21.977            0            0            0   -552.06397    -1469.897   -761.79323   -115.27034   -327.66672   -534.34649 
  128000    390.43079   -254.91226   -644.64018       21.977       21.977       21.977            0            0            0   -343.96538   -713.41351   -876.54166    108.56579   -166.21577   -233.36483 
  128500    478.50027   -255.16079   -588.30671       21.977       21.977       21.977            0            0            0   -621.27141   -700.81783   -442.83089    9.5759287   -853.71327    233.54254 
  129000     388.5893   -253.77832   -281.04509       21.977       21.977       21.977            0            0            0   -1071.5813    176.29324    52.152794    375.46597    253.30445   -291.25494 
  129500    401.16375   -254.65641   -550.16073       21.977       21.977       21.977            0            0            0    -374.1239   -390.89535   -885.46295    308.27691    184.94789    -458.9379 
  130000    396.31388   -256.40189   -1179.4641       21.977       21.977       21.977            0            0            0    -1556.812   -801.82534    -1179.755   -34.906781    298.28432   -533.25106 
  130500    385.12397   -253.86453   -511.97798       21.977       21.977       21.977            0            0            0    201.68521   -1018.1352   -719.48397    141.44618    588.39966   -99.250194 
  131000    405.24842   -255.08142   -847.97264       21.977       21.977       21.977            0            0            0   -1030.9646   -693.09411    -819.8592   -319.75359    164.45239    252.36309 
  131500    398.45711   -255.59908   -1047.2724       21.977       21.977       21.977            0            0            0   -661.92272   -168.80871   -2311.0858     405.0913   -468.22322   -196.66574 
  132000    359.42813   -255.46326   -991.52707       21.977       21.977       21.977            0            0            0   -1323.1525   -629.18008   -1022.2486   -412.99087    338.50207    110.65257 
  132500    465.80416   -254.33735   -316.20633       21.977       21.977       21.977            0            0            0   -549.45416    27.441265   -426.60609   -66.824623    401.20525    106.06604 
  133000    425.76169   -255.02197   -670.96947       21.977       21.977       21.977            0            0            0   -574.62169   -1045.2245   -393.06226   -168.93448   -608.85064   -639.83572 
  133500    408.71708   -254.99115   -786.66549       21.977       21.977       21.977            0            0            0   -1021.6593   -157.57263   -1180.7646    -52.93044    -516.5864    140.63087 
  134000    385.33987   -255.22495   -880.41531       21.977       21.977       21.977            0            0            0   -1519.1984   -676.47062   -445.57692   -453.65968    563.96493   -290.62937 
  134500    374.36949   -255.20569   -857.31177       21.977       21.977       21.977            0            0            0    -115.3287   -1105.9942   -1350.6124     444.7323   -2.0395083   -330.17553 
  135000    373.81066    -254.8907   -883.95825       21.977       21.977       21.977            0            0            0   -1370.7428   -491.19769   -789.93422    -222.5327   -11.633718   -236.09191 
  135500    403.35847   -254.88961   -797.85404       21.977       21.977       21.977            0            0            0   -737.85621   -96.021845   -1559.6841    98.626069    228.33352   -669.35373 
  136000      396.174   -253.60735    -415.5171       21.977       21.977       21.977            0            0            0   -789.71697    189.04497   -645.87928   -8.5686707   -357.96759    327.76643 
  136500    381.62463   -255.16128   -1005.0378       21.977       21.977       21.977            0            0            0   -1562.2385   -314.99395   -1137.8809    35.808013   -79.229281   -66.782987 
  137000    424.76701   -254.91351   -735.71763       21.977       21.977       21.977            0            0            0   -106.87297    -568.5596   -1531.7203    218.66081    27.290303   -238.28145 
  137500    415.93759    -254.5641   -567.49378       21.977       21.977       21.977            0            0            0   -428.77481   -610.91029   -662.79625    113.94731      180.756    549.66779 
  138000    434.42128   -255.02801   -664.55097       21.977       21.977       21.977            0            0            0   -434.50074   -747.86753   -811.28464   -609.25894    5.9625939   -345.68699 
  138500    401.90104   -255.21186   -728.16746       21.977       21.977       21.977            0            0            0   -1185.5235   -125.89292   -873.08595    182.74214   -100.18325    303.13716 
  139000    397.50999   -254.12297     -547.155       21.977       21.977       21.977            0            0            0   -192.80777   -1282.7566   -165.90062    125.59415   -340.01057    197.87656 
  139500    385.22269   -255.21207   -740.24649       21.977       21.977       21.977            0            0            0   -899.15698   -927.46246   -394.12003   -468.60004   -250.86982   -711.51676 
  140000    406.65882    -254.7989    -688.7107       21.977       21.977       21.977            0            0            0    150.40013    -1081.856   -1134.6762     83.76373   -88.198703   -187.75259 
  140500    388.88213    -254.1755   -534.61742       21.977       21.977       21.977            0            0            0   -771.70671   -602.48936   -229.65618   -74.339018   -832.86517    274.42191 
  141000    393.68504   -254.70266   -609.81371       21.977       21.977       21.977            0            0            0   -652.74985   -636.60084   -540.09044   -320.53164   -117.48074    5.2281971 
  141500    410.76056   -255.32517    -856.3271       21.977       21.977       21.977            0            0            0   -160.79062   -1533.2645   -874.92613    694.92541    139.42857    600.44015 
  142000    396.62177    -254.9611   -840.99641       21.977       21.977       21.977            0            0            0   -794.45842   -1556.4702   -172.06057   -79.889195    366.36746    262.53421 
  142500    402.37494   -255.09798   -814.20749       21.977       21.977       21.977            0            0            0   -1402.2958   -425.16045    -615.1662    180.71426    113.61059   -486.05625 
  143000    387.30785   -253.45104   -50.499143       21.977       21.977       21.977            0            0            0    859.68986    -529.7532   -481.43409    107.87222    122.94407   -143.99409 
  143500    392.28372   -256.17493    -1020.373       21.977       21.977       21.977            0            0            0   -1465.6601   -836.11339   -759.34557   -294.42169    188.82986   -355.63899 
  144000    403.19914   -254.67006    -869.3003       21.977       21.977       21.977            0            0            0   -1488.4509   -665.48329   -453.96668    132.46166    151.22413   -168.30456 
  144500    417.12785   -255.39177   -769.13121       21.977       21.977       21.977            0            0            0    -43.41678   -1651.7357   -612.24117    211.68142    313.35071    48.409552 
  145000    407.05986   -255.92198   -799.30287       21.977       21.977       21.977            0            0            0   -518.60359   -1481.0414   -398.26364     371.4399    261.16373   -64.302575 
  145500    412.86152   -255.27469   -787.00057       21.977       21.977       21.977            0            0            0   -892.88102   -1294.2034   -173.91724   -319.01348   -59.180425   -93.147896 
  146000    366.98024   -254.56546   -754.68806       21.977       21.977       21.977            0            0            0   -919.07338   -441.54067   -903.45014   -190.41679   -412.58993   -285.57981 
  146500    387.87139   -254.46652   -841.87498       21.977       21.977       21.977            0            0            0   -1224.1466   -339.76946   -961.70888    138.63344   -58.455027   -12.562289 
  147000     391.7521   -255.21782   -1021.6349       21.977       21.977       21.977            0            0            0   -1875.9483   -854.70014   -334.25611    115.33067   -130.72239    241.40892 
  147500     403.1694   -254.96601   -612.43506       21.977       21.977       21.977            0            0            0   -942.32297    83.647593   -978.62981   -342.40761    153.35617   -326.80252 
  148000    372.88955   -255.61977   -1214.1053       21.977       21.977       21.977            0            0            0   -1442.3716   -1570.9678   -628.97667   -178.14456   -666.00159    301.08851 
  148500    413.60887   -254.17279   -284.30312       21.977       21.977       21.977            0            0            0    -270.1877     135.4049   -718.12656    -559.7176   -138.65206   -801.52015 
  149000    366.44256   -255.47575   -947.39138       21.977       21.977       21.977            0            0            0   -802.82501   -316.78211    -1722.567    371.90374   -439.96012    264.35114 
  149500    403.99819   -255.07357   -777.63812       21.977       21.977       21.977            0            0            0    -579.2467   -709.76727   -1043.9004   -346.71852    541.23593    268.28953 
  150000     378.6508   -255.75798   -889.97028       21.977       21.977       21.977            0            0            0    -754.9854   -1243.9135   -671.01195    242.86405   -124.73848   -807.77986 
  150500    400.89392   -255.20015   -811.49699       21.977       21.977       21.977            0            0            0   -473.05403   -1228.2386   -733.19829    496.65468   -439.29053   -374.18176 
  151000    404.47835   -255.33842   -870.67071       21.977       21.977       21.977            0            0            0     -580.853   -1047.2695   -983.88966   -794.61767    -643.7582    380.52751 
  151500     421.0109    -253.9485    -98.20421       21.977       21.977       21.977            0            0            0    310.10892    -66.87043   -537.85112    409.91843   -451.59039    262.12271 
  152000    388.69297   -254.25233   -580.75317       21.977       21.977       21.977            0            0            0   -572.87843   -408.59379   -760.78729   -21.602234    6.7459826   -1.1962614 
  152500    387.78229   -253.52712   -184.73341       21.977       21.977       21.977            0            0            0    -191.1326   -230.82756   -132.24006   -520.67045    -169.2703    193.94489 
  153000    404.17814   -255.71573   -1089.7182       21.977       21.977       21.977            0            0            0   -249.24957   -794.52887   -2225.3761   -441.19528    1245.2181   -26.219015 
  153500    390.02449   -254.25966   -543.78063       21.977       21.977       21.977            0            0            0   -622.05733   -135.39003   -873.89454    267.14789    60.888893     217.1067 
  154000    384.49461   -254.54573   -906.16578       21.977       21.977       21.977            0            0            0   -737.85457   -1304.3118   -676.33101   -80.490921   -238.89009   -177.41648 
  154500    386.24024   -256.20409   -1212.1519       21.977       21.977       21.977            0            0            0   -1346.9514   -1171.3137   -1118.1907   -64.723838    281.98273    13.627954 
  155000    410.13248    -254.4006   -642.13635       21.977       21.977       21.977            0            0            0   -328.74015   -925.09809   -672.57081    340.35579   -350.79306    305.91864 
  155500    395.40202    -254.5088   -607.66504       21.977       21.977       21.977            0            0            0   -497.94407   -555.66012   -769.39093   -522.86924   -420.73532    424.37391 
  156000    366.39789   -255.10222   -793.14771       21.977       21.977       21.977            0            0            0   -1089.1327   -529.53566   -760.77475    68.493046    73.809518    -329.1717 
  156500    389.74572   -255.30036   -801.69635       21.977       21.977       21.977            0            0            0   -1251.5316   -250.45009   -903.10731    238.59563   -259.14732    895.11895 
  157000    377.26574   -254.94589   -837.22067       21.977       21.977       21.977            0            0            0   -333.25055   -582.70348    -1595.708    -18.82063   -138.23209   -508.21486 
  157500    435.45577    -254.5267   -244.99268       21.977       21.977       21.977            0            0            0   -342.98602   -51.888475   -340.10355   -116.73647    212.64754    438.54586 
  158000    366.93533   -254.73116   -785.63169       21.977       21.977       21.977            0            0            0   -216.75087   -728.40201   -1411.7422   -126.73455   -138.01667    549.26373 
  158500    387.71832   -255.48579   -823.19067       21.977       21.977       21.977            0            0            0   -799.97605   -405.63503   -1263.9609    338.40155   -415.61755    1139.5872 
  159000    469.07324   -254.67649   -377.21178       21.977       21.977       21.977            0            0            0   -628.64005   -20.196584   -482.79872    312.35817    224.86725    596.50804 
  159500    385.70726   -254.93675   -913.39497       21.977       21.977       21.977            0            0            0   -811.15487   -1456.1127    -472.9173    328.26038    145.00453   -245.17748 
  160000    381.20358    -255.5362   -1038.9949       21.977       21.977       21.977            0            0            0   -912.59012   -905.15938   -1299.2353   -330.33791    675.16159   -397.10455 
  160500    370.97612   -254.69798   -949.78084       21.977       21.977       21.977            0            0            0    -747.2025   -327.46684   -1774.6732   -221.92463   -878.30768    538.43636 
  161000    409.14321    -255.1409   -977.79686       21.977       21.977       21.977            0            0            0   -1628.1616   -735.58364   -569.64538    55.478798   -92.274667   -89.591605 
  161500    473.87405   -255.36076   -509.10476       21.977       21.977       21.977            0            0            0   -807.18298   -53.711792   -666.41952    376.66345    48.261846   -304.93993 
  162000    401.08072   -254.33167    -535.4017       21.977       21.977       21.977            0            0            0   -1264.6644   -14.564354   -326.97637    92.214191    34.143099   -297.78347 
  162500    394.42982   -254.49745   -783.57585       21.977       21.977       21.977            0            0            0   -1514.8279   -244.62599   -591.27368   -38.070699    731.18776   -374.29423 
  163000    403.63453   -254.15763    -413.0145       21.977       21.977       21.977            0            0            0    -1256.619    4.7946403    12.780858    125.53615     418.7563   -13.928891 
  163500    415.80912   -255.25941   -813.40573       21.977       21.977       21.977            0            0            0   -643.76762   -68.713674   -1727.7359   -31.985806    842.65743    196.81743 
  164000    391.73037   -254.75274   -730.13512       21.977       21.977       21.977            0            0            0   -761.82779    -619.4085   -809.16907    787.46361    354.21676    279.55985 
  164500    423.80684    -256.6147   -1307.5373       21.977       21.977       21.977            0            0            0   -1271.3153    -684.4281   -1966.8686   -26.818081    707.75999      -308.27 
  165000     373.5785   -255.10111   -677.56157       21.977       21.977       21.977            0            0            0   -1544.7752    168.75308   -656.66261    351.35325    351.96306   -112.33381 
  165500    399.15232   -255.47421    -807.8784       21.977       21.977       21.977            0            0            0   -691.21962   -911.29337    -821.1222   -149.53339     49.91239    188.40492 
  166000    402.22149   -253.10265   -136.86453       21.977       21.977       21.977            0            0            0   -385.75991   -304.28518    279.45149   -639.56993    269.16199    95.539618 
  166500    376.65122   -255.96808   -1187.4729       21.977       21.977       21.977            0            0            0   -2144.4014   -819.11498   -598.90239   -301.80477   -88.172728    538.85294 
  167000    371.51053   -254.11353   -624.58608       21.977       21.977       21.977            0            0            0    -1253.406   -160.77846   -459.57374    404.23457    237.88142    73.646588 
  167500    399.90037   -253.24754   -119.63771       21.977       21.977       21.977            0            0            0    132.94978    236.30689   -728.16981    34.356031    374.78702   -366.75936 
  168000    397.89321   -253.78245   -270.50364       21.977       21.977       21.977            0            0            0     -576.662    364.99897   -599.84789   -227.54181     66.22144    299.76755 
  168500    398.78768    -254.2476   -523.75903       21.977       21.977       21.977            0            0            0   -1007.1923   -172.73703   -391.34777    208.36707    99.970991   -338.38302 
  169000    401.57322   -255.53585   -929.31443       21.977       21.977       21.977            0            0            0   -897.20527    -1602.837   -287.90107   -574.67593   -346.28286   -251.84358 
  169500    399.48863   -255.11927   -555.56929       21.977       21.977       21.977            0            0            0   -268.38111   -113.36341   -1284.9634    370.62576    209.41179    439.08416 
  170000    404.31487   -254.94155   -777.33888       21.977       21.977       21.977            0            0            0   -892.23057   -1077.2895   -362.49653       42.988    478.88103   -501.92892 
  170500    381.35506   -255.90803   -1065.8318       21.977       21.977       21.977            0            0            0   -1753.0656   -1077.5227   -366.90698   -630.88728    -450.2355    154.73778 
  171000    412.23195   -252.92285   -195.59323       21.977       21.977       21.977            0            0            0    75.332531    69.826991   -731.93922    391.49665      -125.14   -89.331742 
  171500    416.69839   -253.56301   -154.44592       21.977       21.977       21.977            0            0            0   -637.95123    391.27844   -216.66496    233.45061    341.15758   -178.15943 
  172000    408.64043   -255.06492   -671.79896       21.977       21.977       21.977            0            0            0   -850.39356   -779.35389   -385.64942   -520.25762   -881.14895    309.76581 
  172500    381.47213   -254.56343   -719.53238       21.977       21.977       21.977            0            0            0   -1386.1673    183.47043   -955.90028   -146.16263    280.97761   -225.36355 
  173000    380.87297   -254.24846   -732.65949       21.977       21.977       21.977            0            0            0   -780.43109   -1046.6679   -370.87948    118.87137    410.55694    303.04202 
  173500    443.66595   -254.58851   -555.69746       21.977       21.977       21.977            0            0            0   -1084.5535   -375.51663   -207.02224    -387.7772    530.73958   -201.53469 
  174000    395.92216   -254.25219   -598.75307       21.977       21.977       21.977            0            0            0   -723.21313   -458.74094   -614.30514   -836.51939   -68.866721   -420.92402 
  174500    414.46181   -254.74047   -725.55587       21.977       21.977       21.977            0            0            0   -849.57878   -675.93469   -651.15414    256.91413    11.085544    -318.7351 
  175000    400.13304   -255.03593   -741.95651       21.977       21.977       21.977            0            0            0   -1211.6068   -976.72553   -37.537241    376.86393   -189.08972   -544.29151 
  175500    391.71845   -254.85193   -735.17867       21.977       21.977       21.977            0            0            0   -988.59734   -1044.1417   -172.79698    447.37314   -431.36205   -492.74075 
  176000    419.14897   -255.68291   -825.51236       21.977       21.977       21.977            0            0            0   -721.62573   -377.54681   -1377.3646   -105.90769    79.441651   -66.535383 
  176500    431.03397   -256.20016   -1037.1601       21.977       21.977       21.977            0            0            0   -796.37515   -487.91661   -1827.1884    142.01884     299.1537   -65.612755 
  177000    374.85022   -255.12374   -642.10485       21.977       21.977       21.977            0            0            0   -1194.4217    -46.80637   -685.08651   -537.16161   -622.57438     420.9279 
  177500    413.93659   -255.85566   -973.55226       21.977       21.977       21.977            0            0            0   -1333.1926   -101.23326   -1486.2309    342.45453    46.333745   -208.07283 
  178000    386.13969   -253.79189   -483.82141       21.977       21.977       21.977            0            0            0   -465.34809    342.38719   -1328.5033    287.69493   -751.94972   -130.98285 
  178500    409.42523   -254.41588   -448.64164       21.977       21.977       21.977            0            0            0    -761.7992   -580.89502   -3.2307011     410.6671     203.2885   -214.58959 
  179000    426.48182   -255.24091   -920.78108       21.977       21.977       21.977            0            0            0   -1525.5222   -561.26423    -675.5568    491.10293   -695.53583    539.82548 
  179500    412.50675    -253.8527   -481.71724       21.977       21.977       21.977            0            0            0   -2.0346184   -680.64963   -762.46748    216.20013   -319.22089   -495.47168 
[...]
  454500    433.58939   -254.06194   -459.36758       21.977       21.977       21.977            0            0            0   -91.431688   -436.89297   -849.77809    367.53051      -340.38    403.57838 
  455000    418.38724   -254.80284    -656.1301       21.977       21.977       21.977            0            0            0   -1167.3496   -170.36901   -630.67169    87.140597   -48.129845    635.47539 
  455500    390.07743   -255.53431   -1009.8436       21.977       21.977       21.977            0            0            0   -436.94317     -1027.46   -1565.1276   -258.34317     -70.3552    915.12969 
  456000    352.22316    -254.7604   -844.42603       21.977       21.977       21.977            0            0            0   -227.23093   -1119.4731   -1186.5741    7.6548085   -282.96696    14.090975 
  456500    359.77491   -254.61292   -818.49541       21.977       21.977       21.977            0            0            0   -1320.8167    48.025845   -1182.6953    -555.9173    114.52347   -242.42451 
  457000    390.51913   -255.76815   -847.76073       21.977       21.977       21.977            0            0            0   -1820.5314   -429.81729   -292.93354    32.956207   -12.861657   -240.05724 
  457500    346.64326   -254.92641   -749.46089       21.977       21.977       21.977            0            0            0   -783.69609   -518.64701   -946.03958   -592.24276    112.84832   -727.09023 
  458000    404.64397   -255.25999   -840.54674       21.977       21.977       21.977            0            0            0   -1313.9733   -934.86189   -272.80501    13.735766    148.88424    54.240985 
  458500    388.62161   -255.10029   -977.04524       21.977       21.977       21.977            0            0            0   -1654.2887   -685.78086   -591.06615     715.4824    160.49529   -440.33596 
  459000    412.73663   -253.67813    -459.7624       21.977       21.977       21.977            0            0            0   -445.25531   -1244.0591    310.02725   -113.35554   -315.87382    53.859774 
  459500    399.78916    -254.6319    -534.2004       21.977       21.977       21.977            0            0            0    -397.2331   -724.37607   -480.99203   -35.519155    99.979273    202.55291 
  460000    415.27659   -254.57283   -498.29547       21.977       21.977       21.977            0            0            0    206.86205   -1452.8176   -248.93087    321.65578   -249.20854    585.51428 
  460500    369.22375   -254.81692   -851.92568       21.977       21.977       21.977            0            0            0   -1463.1291   -339.87096   -752.77692    -70.51679   -15.605366   -567.92719 
  461000    442.18486   -253.79117   -230.97166       21.977       21.977       21.977            0            0            0    192.26321   -168.05104   -717.12714   -353.95397    121.50661   -219.82712 
  461500    429.48326   -254.34739   -363.96992       21.977       21.977       21.977            0            0            0    295.21745   -156.42249   -1230.7047   -12.482558   -828.10129   -215.57385 
  462000    440.89032   -254.91001   -458.04261       21.977       21.977       21.977            0            0            0   -154.53856   -496.08922   -723.50006    416.28144    158.00064    91.526804 
  462500    409.13703     -256.002   -921.36971       21.977       21.977       21.977            0            0            0    -1160.115   -1336.7818   -267.21238    218.17767    472.45164    79.500379 
  463000    410.70216    -255.3551   -737.12772       21.977       21.977       21.977            0            0            0    -731.3132    -1077.482     -402.588    174.90298     138.0023   -81.414025 
  463500    423.28244   -254.55836   -568.17147       21.977       21.977       21.977            0            0            0   -590.79981   -1003.1808   -110.53379   -526.40555   -178.28719    1280.1662 
  464000    443.52003    -255.6379   -811.87451       21.977       21.977       21.977            0            0            0    -414.9762   -656.96222   -1363.6851    223.23387    516.24663     13.14385 
  464500    389.70364   -254.08412   -479.27833       21.977       21.977       21.977            0            0            0   -68.360243   -697.47289   -672.00187    222.17922   -538.81853   -408.48278 
  465000    441.84871   -254.47607   -532.94461       21.977       21.977       21.977            0            0            0   -185.10568   -1017.2402   -396.48795    184.98992    272.59677    227.45621 
  465500    434.83046   -255.90843    -978.0169       21.977       21.977       21.977            0            0            0   -676.08942   -1286.2255   -971.73577   -453.55224    511.20144    462.17784 
  466000    396.64963   -254.28117   -549.17256       21.977       21.977       21.977            0            0            0     403.9314   -1323.6197   -727.82941   -39.977416    46.150428      318.654 
  466500    387.96817   -255.04774   -719.15318       21.977       21.977       21.977            0            0            0   -266.89256   -340.49924   -1550.0677    205.64051    668.19656    -562.6246 
  467000    418.31271     -254.925   -658.52851       21.977       21.977       21.977            0            0            0   -1076.1257    -84.27018   -815.18965    -17.50647    651.67021    -223.7529 
  467500    380.96012   -253.41293   -405.72246       21.977       21.977       21.977            0            0            0    -243.5812   -626.24163   -347.34455     211.7044     -424.142     352.7258 
  468000     371.2199   -255.10561    -763.0572       21.977       21.977       21.977            0            0            0   -1106.0381   -750.92503   -432.20848   -503.39325   -383.78004    -61.39952 
  468500    373.15597    -255.1888   -577.54459       21.977       21.977       21.977            0            0            0   -1036.2621   -203.97018   -492.40146    721.19494    34.632637    474.31695 
  469000    412.13643   -256.39312   -1101.3036       21.977       21.977       21.977            0            0            0   -1158.9224   -1499.8915   -645.09698   -152.95084    183.19084    51.673516 
  469500    392.44418     -255.746   -1195.2082       21.977       21.977       21.977            0            0            0   -923.64934   -812.76356   -1849.2118   -447.66592   -600.71242   -59.969482 
  470000     363.4929   -256.17419   -1241.9519       21.977       21.977       21.977            0            0            0   -1594.6942   -1227.7189   -903.44248    386.84861   -211.13189   -115.92156 
  470500     372.1189   -255.09248   -898.64577       21.977       21.977       21.977            0            0            0   -796.71011   -504.34187   -1394.8853   -368.46959     107.8635   -422.31259 
  471000    426.26763   -255.50956   -861.87645       21.977       21.977       21.977            0            0            0   -629.96585   -1541.7539   -413.90962    277.46466    330.68833   -553.15767 
  471500    417.77115   -254.73513   -629.39817       21.977       21.977       21.977            0            0            0   -679.71494    158.77598   -1367.2556    -473.0511   -322.58365     189.3856 
  472000     406.1622   -255.77144   -857.27034       21.977       21.977       21.977            0            0            0   -160.38119   -688.86547   -1722.5644    -292.8663    539.36817    312.71079 
  472500    436.15869    -256.0645   -1130.1378       21.977       21.977       21.977            0            0            0   -1551.8699   -586.27208   -1252.2713    37.221383    555.22788    602.49881 
  473000    386.58457   -254.80633   -687.06883       21.977       21.977       21.977            0            0            0   -1058.0002   -1309.1605    305.95413   -35.113264    341.28059   -165.89985 
  473500    377.87658   -254.64875   -795.46252       21.977       21.977       21.977            0            0            0   -177.09564   -1114.4539   -1094.8381    15.679528   -217.77997    379.38018 
  474000    413.68007   -255.57845   -807.02045       21.977       21.977       21.977            0            0            0   -626.22452   -1099.3651   -695.47167     277.3783    334.16555   -26.063269 
  474500    418.68728   -255.05762   -702.71846       21.977       21.977       21.977            0            0            0   -1250.1163   -125.12877   -732.91034   -306.83553   -526.45154    354.99155 
  475000    390.00717   -255.89924    -1159.519       21.977       21.977       21.977            0            0            0   -1272.2916   -910.52073   -1295.7447   -281.69303    530.00402    -111.3006 
  475500    427.09658   -254.45359   -607.67736       21.977       21.977       21.977            0            0            0   -555.23655   -831.86236   -435.93316    305.50657   -231.67222    548.26977 
  476000    356.19618   -255.98446   -1297.7808       21.977       21.977       21.977            0            0            0   -1167.6034   -1122.9761    -1602.763    640.72059    467.22667   -395.78273 
  476500     367.9964   -255.03244   -1029.7025       21.977       21.977       21.977            0            0            0    -2016.187   -863.74482   -209.17577    378.63821    412.50803   -373.77628 
  477000    379.24951   -255.07983   -936.43828       21.977       21.977       21.977            0            0            0   -1370.5134   -444.33064   -994.47084   -73.750656   -33.991004    -473.8076 
  477500    386.50329   -255.07184   -791.54849       21.977       21.977       21.977            0            0            0   -453.94095    -923.6219   -997.08262    255.98663    285.05285     367.3043 
  478000    415.96562    -254.8151   -520.83122       21.977       21.977       21.977            0            0            0    -84.88562   -327.26538   -1150.3427   -241.35642    179.38733     391.7142 
  478500    416.11314   -254.94421   -418.48322       21.977       21.977       21.977            0            0            0   -124.93368   -692.68804   -437.82796   -66.337306    182.69497    889.86685 
  479000    386.87612   -254.65979   -550.94432       21.977       21.977       21.977            0            0            0   -524.79823   -253.86166   -874.17307     166.7856    41.458141   -61.036275 
  479500     378.5401    -255.1229   -908.14985       21.977       21.977       21.977            0            0            0   -5.5900006   -1782.0281   -936.83147   -126.52497   -487.81133    11.762592 
  480000    404.98124   -254.30635    -399.9075       21.977       21.977       21.977            0            0            0   -843.52964   -661.03683    304.84397   -159.86409   -86.103627   -339.32237 
  480500    388.74288   -254.75696   -641.46774       21.977       21.977       21.977            0            0            0   -765.84844    119.91697   -1278.4718    686.22685   -687.06104    528.06771 
  481000    405.01149   -254.35373   -483.23231       21.977       21.977       21.977            0            0            0   -576.01375    56.476915   -930.16009   -167.52195    48.585945    33.422104 
  481500    383.71026    -254.8754   -702.08624       21.977       21.977       21.977            0            0            0   -683.31942   -986.43603   -436.50328   -716.83124    265.22504   -509.90445 
  482000    355.80603    -255.6009   -1081.2271       21.977       21.977       21.977            0            0            0   -1036.0498   -1129.9977   -1077.6339    192.29966    596.66744   -935.96673 
  482500    371.02953   -254.86544   -708.43431       21.977       21.977       21.977            0            0            0   -106.96545   -1192.5503   -825.78717   -248.64553    583.70561   -673.97494 
  483000    390.14443   -255.20063   -597.53494       21.977       21.977       21.977            0            0            0   -693.32815   -249.27793   -849.99874   -541.31378   -228.77527    95.896198 
  483500    437.43017   -254.45616   -399.79644       21.977       21.977       21.977            0            0            0    144.06332   -1282.1233   -61.329333    630.84386   -9.4492977      403.389 
  484000     399.2431   -255.47106   -1006.8387       21.977       21.977       21.977            0            0            0   -1186.2533    -1160.939   -673.32388   -208.34577   -130.48908   -63.682167 
  484500    384.83247   -254.06682   -630.77898       21.977       21.977       21.977            0            0            0    265.03881    -634.3721   -1523.0037   -299.81959   -460.74226   -1043.6633 
  485000    374.76482   -253.47313    -342.3659       21.977       21.977       21.977            0            0            0   -397.87834   -1161.4373    532.21794    707.95812    623.98524    579.72922 
  485500    414.23847   -253.87943   -344.17078       21.977       21.977       21.977            0            0            0   -426.09636   -718.76912    112.35313   -371.53968   -16.100707   -213.20107 
  486000     422.2428   -255.00299   -759.61168       21.977       21.977       21.977            0            0            0   -864.87155   -953.15855   -460.80495   -387.09948   -431.65058   -28.484851 
  486500     415.4678   -254.64733   -715.15233       21.977       21.977       21.977            0            0            0   -800.19386   -1037.5689   -307.69422   -33.349181   -282.14891     51.43264 
  487000     419.6031   -254.06607   -276.36946       21.977       21.977       21.977            0            0            0   -419.27632    -47.64161   -362.19044   -49.692991    -453.0229   -1163.0119 
  487500    383.46351   -254.85255   -780.23288       21.977       21.977       21.977            0            0            0   -1373.4447   -578.07842   -389.17556    239.83942    197.43567    391.00809 
  488000    404.08055   -255.13129   -649.40356       21.977       21.977       21.977            0            0            0   -328.50881   -1601.8177   -17.884135    474.21754   -180.01903   -569.85764 
  488500    432.03369   -253.91792   -306.58006       21.977       21.977       21.977            0            0            0    291.27768   -1225.0231    14.005278  -0.85269014     -1152.17    496.74923 
  489000    408.98602   -254.39324   -573.37637       21.977       21.977       21.977            0            0            0   -1007.1502   -220.36411   -492.61482    375.67829    143.69941    18.632878 
  489500     393.2135    -254.3125   -505.98129       21.977       21.977       21.977            0            0            0    2.0400113   -886.07069    -633.9132    163.94459   -657.44046     265.0062 
  490000    353.63918   -255.04573   -906.64166       21.977       21.977       21.977            0            0            0   -570.40754   -1324.4207    -825.0967    253.20308    424.21112   -585.48893 
  490500    396.62637     -255.476   -914.86779       21.977       21.977       21.977            0            0            0   -228.75769   -936.38401   -1579.4617   -314.04191    16.369766    55.557391 
  491000    409.08836   -254.46561   -701.83924       21.977       21.977       21.977            0            0            0   -313.99593   -1385.0284   -406.49339    223.79101    16.092873    92.747601 
  491500    393.47591   -255.20565   -823.85039       21.977       21.977       21.977            0            0            0   -1232.2461   -1087.2093   -152.09574    76.804185    507.62665    316.90438 
  492000    407.12412   -254.05361   -397.92407       21.977       21.977       21.977            0            0            0   -397.50811   -433.88957   -362.37454   -420.76335   -31.152733    29.359723 
  492500    396.96789   -255.30475   -691.89617       21.977       21.977       21.977            0            0            0   -191.31253   -536.08924   -1348.2867    235.68432    106.31179   -859.87973 
  493000    376.96888   -255.58131   -879.58124       21.977       21.977       21.977            0            0            0   -709.15316   -1026.4434   -903.14719   -40.243843   -274.77687   -334.34456 
  493500    388.78123   -254.24081   -654.68238       21.977       21.977       21.977            0            0            0   -969.90463    -229.9771    -764.1654    302.87593    401.94172    320.58181 
  494000    398.57804   -254.10398   -307.00751       21.977       21.977       21.977            0            0            0   -766.07909    618.59428   -773.53773    463.89605   -101.06168   -201.49672 
  494500    401.83414   -255.60992   -1093.5095       21.977       21.977       21.977            0            0            0   -1182.4609   -417.40191   -1680.6656    726.58279     322.8845    67.819377 
  495000    379.75624   -254.54586   -530.82949       21.977       21.977       21.977            0            0            0    -159.0314   -915.86028   -517.59678    268.20856    -51.39837   -206.75714 
  495500    395.01075   -253.75759   -174.40127       21.977       21.977       21.977            0            0            0   -186.05561   -835.63618    498.48798    183.04515   0.44347665   -1118.8118 
  496000    380.50246   -254.97995   -773.77604       21.977       21.977       21.977            0            0            0     -1360.56   -1719.7822    759.01408   -174.91796    638.21934    -284.1167 
  496500    390.66047   -255.72589   -869.02411       21.977       21.977       21.977            0            0            0   -1905.0493   -821.88967    119.86663   -100.54477   -241.86423    415.90803 
  497000    400.97767   -254.02968   -412.02315       21.977       21.977       21.977            0            0            0   -435.17685   -481.74531   -319.14729     354.2062    763.85984   -386.70661 
  497500     412.8909   -254.18981   -416.18742       21.977       21.977       21.977            0            0            0    -195.6518   -221.38835   -831.52211    184.46907   -332.56341    203.76965 
  498000    397.94134   -254.03419    -552.9518       21.977       21.977       21.977            0            0            0   -324.45091   -906.82844   -427.57605    221.66772    12.409006   -447.93688 
  498500    397.82906   -254.71464   -561.35194       21.977       21.977       21.977            0            0            0   -355.48717     -907.045   -421.52364    36.567761    333.21113   -237.04477 
  499000    407.34938     -254.613   -522.15356       21.977       21.977       21.977            0            0            0   -292.87323   -470.35592   -803.23152   -216.31162   -324.09164    34.955079 
  499500    424.15003   -255.63034    -916.7781       21.977       21.977       21.977            0            0            0   -692.15039   -1481.7592   -576.42469    10.427244   -300.00645    36.074725 
  500000     388.9499   -254.30804   -546.59145       21.977       21.977       21.977            0            0            0   -201.69977   -688.46576   -749.60883   -256.34598    42.511017   -137.08523 
Loop time of 161.718 on 4 procs for 500000 steps with 250 atoms

Performance: 534.262 ns/day, 0.045 hours/ns, 3091.796 timesteps/s
95.4% CPU use with 4 MPI tasks x no OpenMP threads

MPI task timing breakdown:
Section |  min time  |  avg time  |  max time  |%varavg| %total
---------------------------------------------------------------
Pair    | 102.09     | 108.52     | 115.47     |  46.8 | 67.10
Neigh   | 1.7733     | 1.8079     | 1.8414     |   1.9 |  1.12
Comm    | 10.462     | 17.442     | 23.874     | 117.2 | 10.79
Output  | 29.307     | 29.309     | 29.315     |   0.1 | 18.12
Modify  | 3.903      | 3.9613     | 3.9962     |   1.8 |  2.45
Other   |            | 0.6811     |            |       |  0.42

Nlocal:    62.5 ave 66 max 59 min
Histogram: 1 0 1 0 0 0 0 1 0 1
Nghost:    1099.25 ave 1116 max 1085 min
Histogram: 1 0 1 0 0 1 0 0 0 1
Neighs:    4335.5 ave 4805 max 3791 min
Histogram: 1 1 0 0 0 0 0 0 0 2

Total # of neighbors = 17342
Ave neighs/atom = 69.368
Neighbor list builds = 13822
Dangerous builds = 0

Total wall time: 0:02:43
