LAMMPS data file via write_data, version 16 Jul 2018, timestep = 25000000

250 atoms
1 atom types

0.0000000000000000e+00 2.1977000000000000e+01 xlo xhi
0.0000000000000000e+00 2.1977000000000000e+01 ylo yhi
0.0000000000000000e+00 2.1977000000000000e+01 zlo zhi

Masses

1 22.9898

Atoms # atomic

225 1 3.8469834637649911e+00 5.1290291110007091e+00 1.0986388320878959e+00 -2 10 46
192 1 2.2302545781146623e+00 6.9996626345735935e+00 3.5355130985830083e+00 -3 10 -6
80 1 4.1546323108061101e+00 1.3465563654587467e-01 2.5973161066032087e+00 -2 -3 -1
122 1 1.0988980940182240e+00 3.1725489846326589e+00 1.7117079792329812e+00 -2 -12 0
239 1 3.1063169262032986e-01 8.8997199181086906e+00 1.7379411366954884e+00 -12 16 -11
193 1 3.7371989656297759e+00 8.4224543555708333e+00 7.4297376307573892e-01 7 6 -5
68 1 7.1314463132347914e+00 6.8488232716702475e+00 2.7719057599748265e+00 -14 -4 10
242 1 5.7994644741846049e+00 1.0920717913521578e+01 1.9205670022263126e+00 19 19 -27
138 1 6.6807647267143757e+00 3.0284176575790163e+00 2.6065046545856054e+00 -10 -1 -2
112 1 1.0753345830827339e+01 2.2071689412128466e+00 1.8550290438783639e+00 -3 -7 -15
118 1 9.8725686992714472e+00 9.6437589524145242e+00 1.3913903434575805e+00 2 -11 3
246 1 1.0180097844859985e+01 5.5827059905544845e+00 1.9295864657550734e+00 9 -18 12
103 1 1.3776494407747172e+01 6.2858051096321601e+00 9.2517274900099711e-01 20 -3 1
65 1 8.1038806751781411e+00 2.1254378791325479e-01 3.3910291559113981e+00 10 14 8
31 1 1.7467711735744619e+01 6.1246075406579630e+00 1.1853388732504051e+00 -4 27 4
174 1 1.9320193034376423e+01 3.4656179583775799e+00 1.1240828096122666e+00 -4 -14 -21
188 1 2.0961971876012928e+01 5.7202507247493815e+00 3.1335499102637399e+00 -5 7 1
40 1 1.5077933116168170e+01 9.5315926238994102e+00 2.3771357539903004e+00 4 -3 -17
49 1 2.0746694594696962e+01 3.1924896350463872e-01 2.5970430741556134e+00 -15 1 3
88 1 1.5832602175570567e+01 2.9735207421164094e+00 5.8101446338456786e-01 -23 -12 19
204 1 1.8579116218711256e+01 8.9166717865891325e+00 2.6419737894146120e+00 -1 -5 9
71 1 1.7421795253918077e+01 4.6411362862703163e+00 4.0329430784877776e+00 2 -8 4
30 1 5.1011510108538385e+00 5.8367544521217629e-01 6.4172329104998944e+00 7 8 -19
196 1 3.5849081203719790e+00 3.5789032025353360e+00 4.8351147154562772e+00 24 -1 20
32 1 6.7696171685761568e+00 4.0522799761637129e+00 6.7756414026970155e+00 8 -4 9
6 1 1.4873810464533066e+00 1.8472562556348973e+00 8.0299638226386048e+00 1 5 2
13 1 5.0048848487048989e+00 7.5932157320845182e+00 5.3920345062416217e+00 -10 1 -7
144 1 2.0248328402311921e+00 5.5093632096852199e+00 7.3771658747930609e+00 -18 -16 16
48 1 1.9018139259102660e+00 1.0192324246422382e+01 6.8743696976659612e+00 -6 -26 -19
162 1 1.5108368012179263e+00 9.1673849288915399e-01 4.4107970214273049e+00 -14 -21 -17
106 1 1.0356914693404649e+01 6.1271725467905993e+00 6.2817894735551132e+00 -13 17 -2
155 1 1.2609896438915417e+01 5.0077151665784951e+00 8.5952747826002938e+00 19 19 -1
51 1 9.7145802712520339e+00 2.5928886536452551e+00 5.2115043786161790e+00 16 6 -11
197 1 7.5456956722311999e+00 8.1454307994664195e+00 7.3294637673066125e+00 8 3 14
113 1 1.2042110251945688e+01 1.0023823248024410e+01 4.7527943779826440e+00 5 -21 -4
186 1 1.4044843840904919e+01 2.7996343946685531e+00 5.5596799823242762e+00 -1 -25 -29
176 1 1.1182688012322053e+01 9.3552251046152275e+00 7.9941692795745904e+00 -7 15 -22
231 1 1.4049377052826749e+01 6.4966921726849032e+00 4.5317131302594866e+00 -4 3 -14
227 1 1.1480565109292170e+01 2.1770256991906507e+00 8.6066528461212854e+00 28 5 -9
249 1 9.1002028406688371e+00 8.9742338277833618e+00 4.7744768234723871e+00 4 -22 -3
136 1 2.1247363088701782e+01 3.6933410356856018e+00 5.5456417689897108e+00 -2 -5 -6
86 1 1.5824319754307894e+01 4.5497379351799685e+00 7.9259734302694493e+00 1 -25 10
229 1 2.1151802260847180e+01 7.8230738936189903e+00 6.2551343326449969e+00 3 5 -7
217 1 1.8680953644461855e+01 2.9245856845982532e+00 7.5134455581108783e+00 -22 1 8
92 1 1.7720572989945328e+01 6.9931944704261255e+00 6.3906555826038662e+00 6 -16 -2
125 1 1.9086508409905640e+01 1.0797304159204723e+01 5.7830693476387536e+00 5 -25 13
69 1 1.4920303240510135e+01 8.7287333693037503e+00 6.4796384887041789e+00 12 6 -26
98 1 1.7230234741675790e+01 1.3119192340519916e+00 4.4543316037318901e+00 13 -9 8
64 1 2.0278045713495398e+01 5.7436162765589174e+00 8.5599303857931357e+00 22 5 -3
73 1 4.9674316720480158e+00 4.0913935025211510e+00 9.7072722530471331e+00 6 -4 -26
215 1 6.4626338309489277e+00 9.6191482628542762e+00 1.2341997876914668e+01 -9 0 2
114 1 1.2614521661147964e+00 4.7433244647968893e+00 1.1135341900460826e+01 -8 -4 -14
21 1 2.9954549802857908e+00 7.8954134618940346e+00 1.2751573553543663e+01 19 1 6
8 1 1.1057504131365203e+00 8.0176909965005780e+00 9.4442309617297990e+00 7 -7 -8
198 1 3.8476411805289774e+00 9.0057089520079814e-01 1.2063405699351838e+01 -8 2 12
105 1 5.8217563456965591e+00 1.0839940003150355e+01 8.7983902439642812e+00 -7 0 3
178 1 2.6118523679335408e+00 1.0764709572961792e+01 1.0628265653162007e+01 7 -20 11
132 1 5.1383185164920597e+00 7.2902610834374979e+00 9.0595562901132709e+00 -1 -10 10
29 1 4.1772130068060118e+00 4.0857926515476661e+00 1.3104880813589890e+01 0 6 6
43 1 1.2299003009972267e+01 1.3289652374387559e+00 1.2326788897048793e+01 6 15 20
191 1 7.7575549066479574e+00 5.4708371995656266e+00 1.0397144217936306e+01 -8 16 4
131 1 1.1084874408201106e+01 4.6039303458088705e+00 1.1943927700891681e+01 -29 -11 -2
3 1 7.3391378744569655e+00 3.1474827555443854e+00 1.2699978284049322e+01 -8 -14 -1
119 1 7.3963547672814487e+00 1.0524893004709903e+00 9.4588266380150863e+00 -13 -1 -4
95 1 1.0269132004496077e+01 7.8364024893024817e+00 1.0808809439836166e+01 31 1 -3
222 1 1.2076444052410364e+01 1.0888273016337653e+01 1.1000347183211623e+01 14 -26 -8
47 1 2.1032735445498968e+01 1.0503592130559632e+01 1.1524937541682725e+01 -2 4 -9
120 1 1.5610816731223236e+01 1.5733250638958773e+00 9.9730878743720588e+00 -12 -18 -8
200 1 1.5855237417986102e+01 8.0139543909010182e+00 9.6919174145940303e+00 6 -9 4
226 1 1.7567564957088745e+01 8.3976086898662814e+00 1.2990424339080043e+01 -17 3 7
82 1 1.8074082847705178e+01 5.5518311207954181e+00 1.0792167546371637e+01 14 -18 4
7 1 2.0978921614151126e+01 2.4179210982160471e+00 1.0924929573461403e+01 9 13 -21
62 1 2.0656488495272100e+01 6.8778327466766740e+00 1.2167184173830000e+01 3 5 -7
208 1 1.8579581858415416e+01 9.4879704216632454e+00 8.8233686390004795e+00 8 -7 -5
102 1 6.5528130474310595e+00 9.8195379442847450e+00 1.5689508835992225e+01 -8 3 13
127 1 3.7479384456723643e+00 8.0805948380584081e+00 1.6087802317280097e+01 -11 -3 0
81 1 3.5779372008440169e+00 3.9672613169348236e-01 1.6311601827572360e+01 7 3 -4
36 1 6.7512252531044836e-01 1.8554798918686328e+00 1.4127364737114231e+01 -2 -5 5
233 1 4.3293628694645232e+00 4.3799211087627894e+00 1.6732380714536749e+01 9 -19 17
240 1 6.0963636521241895e+00 6.6452968961779204e+00 1.3792400791952682e+01 9 -4 -29
35 1 7.7495660806736746e+00 6.6538588091653974e+00 1.7228319419828797e+01 26 -10 -11
19 1 1.1009534459972299e+01 3.1875565318727053e+00 1.4672514888886674e+01 8 -1 27
28 1 1.1421622016045598e+01 2.6027022438855607e-01 1.6390450175561160e+01 1 7 9
219 1 1.4019146565713486e+01 2.8036957509252951e+00 1.6535324293652771e+01 -12 8 12
87 1 1.0295836877125762e+01 8.5607162320377057e+00 1.7374834366893513e+01 -10 8 -3
90 1 1.2895543902494836e+01 5.8064661097768058e+00 1.7242483965622739e+01 -2 16 0
59 1 7.6313391072522423e+00 3.4748315395066598e-01 1.4308074398681658e+01 11 -18 1
184 1 9.8255045681966120e+00 1.0058075668937699e+01 1.3903547378698207e+01 14 -5 -1
150 1 7.5426300889503564e+00 3.2583377115935264e+00 1.6352308897744873e+01 -4 12 0
78 1 9.6234221020757236e+00 6.5064099447658856e+00 1.4542220961289971e+01 -26 0 -5
63 1 1.4251003530733376e+01 4.7923255132137106e+00 1.4009680630836666e+01 -7 -2 -22
99 1 1.2697538684851953e+01 1.0512244537182490e+01 1.6479146678623728e+01 -2 6 8
137 1 1.3072900784532600e+01 7.7703081465074293e+00 1.3312226947997649e+01 15 -2 -11
230 1 1.8584109221002212e+01 7.3901979845145886e+00 1.7076190572201856e+01 -28 -6 47
214 1 2.1748335126855466e+01 8.3886775615385130e+00 1.5593401803407064e+01 -9 -4 0
207 1 2.1004471350752848e+01 4.1247448987085615e+00 1.5984456112108221e+01 -6 -26 -29
235 1 1.8513907892388257e+01 3.6023213820238391e+00 1.3647407683616743e+01 -15 -12 8
2 1 1.5925496333132589e+01 9.4494575409897088e+00 1.7244511253509156e+01 -7 3 12
146 1 1.9615693544273835e+01 8.6884675224356933e-01 1.6234216174320657e+01 9 4 4
20 1 1.6861101907493463e+01 4.9464415544906561e+00 1.5863733489440364e+01 -1 12 29
25 1 1.5855709448246703e+01 2.1926053749549870e+00 1.3251575358664685e+01 -9 3 -31
165 1 4.4825678487351865e+00 6.1180704309653526e+00 2.0086572037195328e+01 11 5 -4
212 1 8.0950890577756829e-01 8.6445385209007917e+00 1.9176281361697558e+01 27 5 2
72 1 6.8672789095065854e+00 4.9697398583648716e-02 1.7931431898176797e+01 -15 -19 -2
121 1 4.1025267343455241e-01 9.7252148469524091e-01 1.7866466322219811e+01 10 -8 15
183 1 3.0137685778308985e+00 3.0419184980096579e+00 2.0541077991246265e+01 -11 4 -14
213 1 1.5020236332594492e+00 5.2215902339542382e+00 1.8257482879365647e+01 -15 8 15
110 1 2.7772728030603910e-01 5.8910417508874531e+00 2.1523869677690250e+01 -10 1 -30
177 1 6.9992824664434572e+00 9.5455154781047060e+00 2.0157088955462370e+01 -3 19 -9
116 1 6.1909524421692650e+00 2.1570276628000964e+00 2.1158445978401538e+01 -4 -9 19
245 1 7.9204154716098998e+00 5.3352461774171491e+00 2.1065415690844642e+01 -39 3 -14
190 1 9.4278121490531017e+00 2.6553970880676886e-01 2.0131265280737839e+01 41 -1 -7
14 1 1.1540822125987603e+01 7.2627695113530280e+00 2.0444894461134052e+01 -9 7 -5
189 1 1.3697473131881852e+01 4.0977773637427690e+00 2.0016368461099535e+01 -5 -21 -5
109 1 1.0173308303551561e+01 3.8816966171215839e+00 1.8316124891300927e+01 13 4 5
16 1 1.4037210640485023e+01 1.0038037663102559e+01 2.0222449282918625e+01 14 -11 25
74 1 2.1272578058653409e+01 2.7822576462054385e+00 2.0052003914950312e+01 -9 7 11
139 1 1.9666801055178688e+01 7.9287432700478364e+00 2.0747894169160855e+01 24 5 6
34 1 1.8690809737727825e+01 4.7933931202015989e+00 1.9137967983613155e+01 -6 -21 18
172 1 1.5651366137888646e+01 6.6155155295817449e+00 1.9948476943976669e+01 13 0 13
140 1 1.6414135269963296e+01 2.5693652144861030e+00 1.8438509685481133e+01 -10 -4 -26
61 1 1.7308843607969926e+01 1.0728548862869017e+01 2.1085246784061258e+01 31 12 3
27 1 1.8786316443036647e+01 1.0964828743867244e+01 1.8135961131249580e+01 -7 28 16
76 1 2.1352361923992532e+01 1.0972170482259768e+01 2.1083720802509916e+01 12 -14 -2
232 1 2.0839021911651643e+00 1.6747537416588045e+01 4.1848504259937487e+00 -7 -6 13
154 1 8.4507094029905971e-02 1.2039181953695774e+01 3.7634192879475372e+00 17 6 -4
130 1 2.0951159630124114e+00 1.2209634009106662e+01 1.0843648671497494e+00 9 10 -8
58 1 4.5826314084009487e+00 1.8163019758219527e+01 1.4811969992143752e+00 -10 -17 -2
100 1 1.3698686883108009e+00 1.9768357750032280e+01 3.0365782717371244e+00 -17 10 3
108 1 5.1543215814902545e+00 1.4724595619474917e+01 9.6975537816360091e-01 1 -17 5
84 1 5.8273560517891081e+00 1.5752101333381686e+01 4.2520738095602413e+00 -12 -15 -14
111 1 5.2444763772238245e-01 2.1731993930845285e+01 2.2966146472138860e-01 12 0 -8
209 1 1.0739164644220518e+01 2.0744932266289734e+01 1.4498905488461364e+00 -11 1 10
44 1 9.2545683193249726e+00 1.2831499784854046e+01 2.6645047030673781e+00 1 19 10
159 1 1.4558334900268029e+01 1.7836257321647352e+01 3.2553721976821355e+00 -9 11 -12
115 1 8.0286069484188225e+00 1.6712449577556203e+01 1.8749068320759272e+00 -7 8 -13
195 1 7.3691484197571988e+00 2.0043212253275783e+01 5.2058492842717718e-01 -3 -16 15
17 1 1.1564142631795033e+01 1.6978905594021676e+01 1.3918626675558174e+00 -10 17 -13
238 1 1.4165726866647294e+01 2.1195741138563992e+01 1.3397281024325745e+00 -2 5 10
234 1 1.2437433104530616e+01 1.1693454459790354e+01 1.0196637629696170e+00 -6 -17 9
220 1 1.2064868820730812e+01 1.5398084305848343e+01 3.9739207555718812e+00 3 -1 11
5 1 1.3195190639815044e+01 1.4800872783561726e+01 6.1606189091264696e-02 17 -3 -7
151 1 1.9408675343412710e+01 1.8970148766985034e+01 3.7703351952409765e+00 15 5 7
205 1 1.6109270604292625e+01 1.3961614030850397e+01 2.6883448913795562e+00 -11 3 5
157 1 1.9130538392180519e+01 1.2363430929937783e+01 1.6133935334533422e+00 -32 3 -3
180 1 1.8018273783421272e+01 1.6763104015059994e+01 1.4482606902095900e+00 9 -3 25
96 1 2.1689600286355311e+01 1.5356845266639192e+01 2.3880777922078691e+00 0 7 6
210 1 2.0014480502299261e+01 1.8972354506648095e+01 2.4895373914318886e-01 -11 17 -18
247 1 1.7227772499062358e+01 2.1840859972429936e+01 1.6882450475319015e+00 2 0 17
135 1 4.7203234458728804e+00 1.9614840167678359e+01 4.9005495214590278e+00 -7 7 5
124 1 3.1550886932569226e+00 1.3284858640326812e+01 4.8343863435897303e+00 -39 -19 4
133 1 7.3144013385872677e+00 1.9532996753115171e+01 7.5959879467256401e+00 -11 -4 12
101 1 6.4589207241190811e+00 1.1864628178353099e+01 5.0759928711745879e+00 1 14 -33
141 1 3.7851464747562300e+00 1.7275638999326308e+01 7.3514537037397281e+00 12 17 -2
42 1 6.5458188002518591e+00 1.4562363250023649e+01 7.9635507234036167e+00 -7 3 10
39 1 1.9686167234407352e+00 2.0759287348062134e+01 6.3648352894859217e+00 -7 11 -13
221 1 2.7650314055246739e+00 1.3908820507447379e+01 8.7185077364272452e+00 2 1 8
148 1 4.2123218518554251e-01 1.4003707070330794e+01 6.3914702985902032e+00 -1 -4 -8
1 1 9.2425997881804651e+00 1.8484453343258821e+01 4.6394418532416326e+00 3 1 21
166 1 1.2090062455088638e+01 1.7600349254116665e+01 7.3658005243683364e+00 0 11 -3
171 1 9.5963261186746678e+00 1.5303411360097574e+01 6.0678684516962420e+00 -1 -9 1
67 1 1.3074283483137277e+01 1.3790503077293410e+01 7.5049599199551258e+00 -11 -16 14
22 1 1.2408896270072258e+01 2.0759625540762130e+01 4.8580231838304071e+00 18 -7 6
223 1 9.5528177803792200e+00 1.2132489416205958e+01 6.9659933383856094e+00 11 4 10
93 1 1.0041537784083157e+01 2.1072937870036338e+01 7.2921034464044023e+00 6 -4 -3
75 1 1.7174369686825827e+01 1.4013425896169156e+01 7.7806631869413803e+00 -11 -1 -2
23 1 2.1926643827992024e+01 1.7312132035050304e+01 7.5202610566647312e+00 -3 -22 -6
211 1 1.9685240163246991e+01 2.1859491869838614e+01 6.3958479404657052e+00 11 -2 -3
24 1 1.5113238692546501e+01 1.1741642583967403e+01 5.1966425940630421e+00 -13 22 -11
156 1 1.5853605477484134e+01 2.0935724722268009e+01 7.9812778710698868e+00 -3 0 5
216 1 1.5272632763668232e+01 1.6711592667224906e+01 6.3562386971988847e+00 -7 -17 -10
91 1 1.8521571626066571e+01 1.8172722353162772e+01 7.4441857242346874e+00 16 2 6
50 1 1.8915890021919918e+01 1.5376355491040579e+01 4.6170450760336212e+00 4 -5 -6
123 1 1.6618076327789737e+01 1.9915482529880155e+01 5.0546584939561772e+00 12 20 0
128 1 7.7278474219243043e-01 2.0874863967517619e+01 1.0657868890966927e+01 -8 2 7
236 1 4.3122882994376335e+00 2.1468376239016447e+01 9.0072294249274041e+00 -1 -10 20
169 1 5.0669830556851858e+00 1.7594337086194614e+01 1.0362937150810689e+01 -11 24 0
201 1 1.8951165835207493e+00 1.7323480260753620e+01 1.0548683002514785e+01 20 2 -19
41 1 2.6736829261155393e-01 1.4107469981686538e+01 1.2133643072205519e+01 -7 29 -9
218 1 5.3461915212441804e+00 1.3431692119871903e+01 1.0941223839585948e+01 9 4 15
53 1 6.8727368413553531e+00 1.9475146713175544e+01 1.2380815479819761e+01 20 -1 -15
129 1 1.0213028466400925e+01 1.4501040586262828e+01 1.0031206946253226e+01 2 -8 1
152 1 7.5027706778576793e+00 1.5410089377513845e+01 1.1567332724424876e+01 -10 5 -14
202 1 1.3021522503973751e+01 1.7094398995931215e+01 1.1838809882587272e+01 13 8 5
244 1 9.0810969412822278e+00 1.7832436432403771e+01 9.5029292865450614e+00 -8 18 -1
12 1 1.2536050503484809e+01 1.9844152988897012e+01 9.6335629406399583e+00 -15 13 22
185 1 9.9704079120717672e+00 2.1822176972795713e+01 1.1683668589640439e+01 -10 5 -30
83 1 1.3560039300334960e+01 1.4055376602438134e+01 1.1048473485778914e+01 26 11 -7
160 1 9.0168258197329578e+00 1.1076064377624789e+01 1.0202506592010421e+01 -8 -9 -17
79 1 2.0671388082964739e+01 1.8056011987637902e+01 1.1574579370611465e+01 6 1 18
9 1 1.8671068079111059e+01 2.1694659766743463e+01 9.9529144196084722e+00 32 -6 6
142 1 1.6138915787146352e+01 1.5074092535763514e+01 1.2718953071374537e+01 -7 18 -2
173 1 1.8593903501419376e+01 1.2377025128619049e+01 1.1341317769220007e+01 6 -8 17
241 1 1.5774602235569205e+01 2.0662803410128490e+01 1.1962724422927259e+01 1 -11 7
194 1 1.6029976858035493e+01 1.7886487202317426e+01 1.0220550618178821e+01 3 -7 -9
107 1 1.9726617915548470e+01 1.5297456177230947e+01 9.8716789828752063e+00 -6 -18 -35
10 1 1.5290287803332234e+01 1.1358851800279389e+01 9.0705147206785117e+00 -10 -13 -21
161 1 2.0971933560220652e+01 1.2114129197886916e+01 8.8059932555582545e+00 -28 -4 -4
187 1 1.5210836757313826e+01 1.1098993633233505e+01 1.2921069540065123e+01 -18 13 -2
54 1 1.9863787714595098e+01 2.1946964904066213e+01 1.3059935311993057e+01 -13 27 -13
181 1 3.0959571648797279e-01 1.6945830829015854e+01 1.4161959874192691e+01 4 19 42
104 1 3.4742055780334917e+00 1.5401449199243594e+01 1.3495400194471335e+01 13 8 4
237 1 8.4333132649094134e-01 1.4444526785426183e+01 1.6094638395450293e+01 1 10 -2
224 1 7.1659411389207088e+00 1.2649014638775833e+01 1.4201416803763900e+01 9 -9 6
199 1 1.0098884883139765e+00 1.9906627796019897e+01 1.5796695981901888e+01 5 0 -5
243 1 5.8406615380458700e+00 1.9205246145948625e+01 1.5757256308773963e+01 -4 -9 -25
11 1 2.0229572818544277e+00 1.1038644976877514e+01 1.6957579965367184e+01 11 10 -11
46 1 2.9622805482773962e+00 1.1929827651707043e+01 1.4078805175181403e+01 11 6 11
15 1 4.5559070650829598e+00 1.4292604949777825e+01 1.6725012976371378e+01 32 9 -6
126 1 3.2280074057287229e+00 1.9301451701560151e+01 1.3377861790142793e+01 12 9 25
77 1 1.3906173680606116e+01 1.4337081072576096e+01 1.5328105388916702e+01 -18 6 14
66 1 7.9473725746367681e+00 1.5995587940944120e+01 1.4966948218315052e+01 -2 6 16
143 1 1.1630916885962449e+01 1.6559435474423957e+01 1.5538106696596902e+01 0 13 -7
38 1 1.0924022357314806e+01 1.3853281387401433e+01 1.3251027476342221e+01 26 12 9
167 1 1.0415519689599854e+01 1.3311579087005670e+01 1.6808663732450903e+01 -2 9 -5
97 1 9.6068421408201967e+00 1.8882659180914757e+01 1.4340148382234560e+01 -15 7 -3
26 1 1.2987027943971151e+01 2.0369325063764276e+01 1.3732191445602112e+01 5 -33 25
94 1 1.3653866868757749e+01 1.9987972409490556e+01 1.7441362919044863e+01 5 -8 -8
228 1 1.6003261821514851e+01 1.8074882435708897e+01 1.5766258334132623e+01 -7 -6 13
37 1 1.8564319587388191e+01 1.5249413078246935e+01 1.6832750574695996e+01 8 -6 8
33 1 1.9141837526879819e+01 1.8804568382625369e+01 1.5357165784953187e+01 -1 6 -2
55 1 2.0634365651923186e+01 1.2275591440990731e+01 1.4678126765138364e+01 -10 -11 7
45 1 1.5811453571544487e+01 2.1923476600552924e+01 1.5697574092412390e+01 7 -9 -18
163 1 1.7372306125198378e+01 1.2304681204433638e+01 1.5145951084594474e+01 -10 16 -4
149 1 5.5392814883456589e+00 1.8334095104095734e+01 1.9862603116793984e+01 17 -7 -2
250 1 3.1388907519361164e+00 1.7794903849894204e+01 1.7779965314378046e+01 -20 -3 -11
158 1 2.9184109861458878e+00 1.4266104897669173e+01 1.9819743522885076e+01 -8 5 1
85 1 3.7109981767932072e+00 2.0979960677051093e+01 2.0390689226750364e+01 -6 9 -6
145 1 3.9092680069375891e+00 1.1152034233935845e+01 2.0779391175759478e+01 -6 -16 -2
175 1 1.6246132919623200e+00 1.7713578954427206e+01 2.1271336589316210e+01 -14 -10 7
70 1 1.4036206128971198e+01 1.3084233535924229e+01 1.8296073881241593e+01 15 -6 -23
182 1 1.0279172192432542e+01 1.8517302454402611e+01 2.1030051626608401e+01 -5 -8 8
57 1 1.2600561626002211e+01 1.6080162254328464e+01 1.9182591104712504e+01 -2 -7 11
248 1 7.6978850038746032e+00 1.5747742425538146e+01 1.8663328302959801e+01 -1 -1 -5
168 1 7.4037070697469733e+00 1.1907205120796720e+01 1.7823701536028068e+01 11 1 17
60 1 9.8416557645166378e+00 1.8821227329315040e+01 1.7940990480343707e+01 -11 26 -18
18 1 9.7485067648218191e+00 1.4673026513274014e+01 2.1680956102527770e+01 -29 18 23
52 1 1.0441495301710713e+01 1.1471470615148677e+01 1.9687266504928768e+01 -11 15 0
56 1 7.5316512164164839e+00 1.2245047153047476e+01 2.1217232753442406e+01 19 3 -12
134 1 1.3265860603542016e+01 2.1772141736788821e+01 2.0082078651876042e+01 11 -13 -2
164 1 1.9212915807911724e+01 2.1504292938012362e+01 2.0302329161034688e+01 15 15 18
89 1 1.8770705525104571e+01 1.7588346772704575e+01 1.9071880981770079e+01 -1 6 -7
117 1 1.7224234606646572e+01 1.4523403397269062e+01 2.0648760408053406e+01 0 -14 12
4 1 1.6709473071164776e+01 2.0745880159084781e+01 1.9082464104285144e+01 -8 1 -9
147 1 1.5500465248567899e+01 1.6118718306889029e+01 1.8061794645731347e+01 -7 4 10
203 1 2.1545680555875240e+01 2.0024093751084813e+01 1.8725709203522925e+01 -29 -14 -4
153 1 1.5381061243588475e+01 1.7986976393728998e+01 2.1308112238787032e+01 33 -8 -4
170 1 2.0588489131593029e+01 1.3407737667109568e+01 1.8196262348824980e+01 2 6 -3
179 1 2.0596802329947984e+01 1.5239793388011590e+01 2.1323338323864530e+01 -1 23 -11
206 1 2.1854951674730017e+01 1.6838719825051044e+01 1.7606490438260877e+01 5 28 -1

Velocities

225 -2.5727656755524020e+00 -7.2690653039634789e-01 -2.9514997326020498e+00
192 4.0615269750483431e+00 -6.0078213394679176e+00 -1.1687563138722919e-01
80 7.8897180424642499e-01 -4.3107989646588614e+00 6.4959701204074838e+00
122 6.1237618180870594e+00 -8.6419010736073218e+00 -4.8069044847680518e+00
239 -1.4968949235379205e+00 3.2076194959124087e+00 7.4908992901838776e+00
193 2.0058685419204556e-02 5.8109046956705530e+00 1.1925351574823662e+00
68 8.1213159279268410e-01 -2.0457104403505375e+00 1.0955968652067523e+00
242 5.7016415579648312e+00 -3.8166701689377955e+00 1.8821336070557950e+00
138 -5.6400482369618539e+00 -1.3622102084816978e+00 -4.7400308157247908e+00
112 5.0636505599480008e+00 -4.4662957992535652e+00 -1.6459098459501733e+00
118 -2.5133433152678850e+00 6.1027862961424590e+00 -1.9956679953767484e+00
246 6.5721318639780679e-01 5.1870642767331017e+00 -3.9325943880600116e+00
103 -3.6184061651709589e+00 1.8933079591516306e+00 4.3763514754217487e+00
65 3.3180398812307081e+00 3.1464308840508650e+00 -4.1073205310369616e+00
31 5.1198196481770319e-01 -1.3427807554084012e+00 -4.9974666875899594e+00
174 3.5446498134273807e+00 2.6925048744549791e+00 -3.8155551546289606e+00
188 3.6416147575832247e+00 -1.1305095354999457e+00 7.1613390755098427e+00
40 -1.1861100753497176e+01 1.1858104940907064e+00 9.6669812288377965e-01
49 4.0501034383966408e+00 9.0079566768806707e-01 2.3603761645261643e+00
88 -3.0602500059063086e-02 -5.6869514896006566e+00 1.7815535047910032e+00
204 6.8379759764288126e+00 -8.2848683265220646e-01 5.4330048561622490e+00
71 9.4773726888749332e-01 2.7926655008637880e-01 -6.3107479145451757e+00
30 1.4432604925889470e+00 5.8348204819831917e+00 4.1517686554397821e+00
196 -2.8412559721531414e+00 4.7893384959739880e+00 -4.2211659682075959e+00
32 -9.0412166805599625e-01 2.5648577974038855e+00 -3.2650097266819387e+00
6 1.2536467507789075e+00 -3.7151409599811234e+00 -9.1134653248655051e-01
13 -2.1759404847040778e-01 3.7923749039909076e+00 1.3426670060971330e-01
144 4.7721835458562012e+00 -1.2092170913152012e+01 -1.2333522036472951e-01
48 1.7501748183664017e+00 -3.8559147940793332e+00 -6.6431591858246275e+00
162 -2.0581965420564012e+00 -1.6791669419411839e+00 -1.9592051763622413e+00
106 -5.0904860072033058e+00 -8.5429351070559907e+00 6.0645553237512564e+00
155 1.1042739843502152e+00 -3.6313727650782610e+00 -3.0614666566057602e+00
51 -2.3468349036853682e+00 7.5307862136312531e-01 -2.3569065421170921e+00
197 4.3311895896293884e-01 -3.5037070881734729e+00 -1.6687578231334510e+00
113 2.9566456477259697e+00 5.0177153429128731e+00 -2.7692195341346557e+00
186 2.2830587874053627e+00 -3.5969296949697047e+00 2.1802886514363697e+00
176 1.0588754351323815e-01 -1.4325465724094779e+00 -2.3127374905701759e+00
231 2.6509699765318429e+00 4.4954600498516459e+00 -1.5866022604410193e+00
227 1.0227213114887865e+00 2.5518453425190972e+00 -7.4136450198564741e-01
249 -6.9358706601632916e+00 -3.9147990331178968e+00 6.5118281213999589e+00
136 -2.6422713779549425e+00 6.7333953961042114e-01 -1.8426951568604069e+00
86 -1.6517636771986497e+00 -6.3141135048571480e+00 -5.2643457635991924e+00
229 2.6952055385667872e+00 -2.9039309399199089e+00 -1.5058948217318402e+00
217 -6.3077924888960339e+00 -3.9645817953121409e+00 -1.2472237018300081e+00
92 5.0540041581600690e+00 -7.2106610709587105e-01 -5.3114063245359775e+00
125 7.3080986361055693e+00 3.9413712072525053e-01 3.6164130562277066e+00
69 -4.1962937296434220e+00 2.4124702998558649e+00 -6.4166091486772814e-01
98 8.0604420878079335e+00 -2.3863123969073006e+00 -2.0117951205225664e+00
64 -8.7921128184703843e+00 -6.9719678317688860e+00 3.9208748584625637e+00
73 -1.0856276042753441e+00 8.2848578234135513e+00 -9.1573390408551458e-01
215 -1.1440235819781597e+00 1.5855786341443701e+00 -4.4364027231403762e+00
114 -1.3065477029180363e+00 2.2798357541024048e+00 4.2059030304296439e+00
21 -8.3808828356959069e+00 2.8168789119789901e+00 3.7231697733690146e+00
8 3.9837634180808683e+00 2.5275361394292317e-01 -2.7655625542261308e+00
198 3.7800111701746388e+00 8.4629334221520913e-01 5.6441593008405953e+00
105 6.8227999358436646e+00 1.2652344426209721e+00 -4.7315259290948815e+00
178 -8.1353443475188918e+00 -2.9134023604420687e+00 -5.3337153816211798e+00
132 -9.4372481708733442e+00 -3.7910054118394081e+00 -3.9993223969274396e+00
29 1.3744824428166022e-01 4.9015038756000786e+00 -3.9573206156902527e+00
43 1.9354875916451448e+00 -3.7754507409979463e+00 -2.6889403815143229e+00
191 -4.2105747676538208e+00 -1.4205179493985360e+00 4.7244370327772783e-01
131 -4.8607904320268878e+00 -2.5597599012844161e+00 1.9991651187695492e+00
3 -2.1878271371377007e+00 5.5783124429828812e-01 2.9127910443269394e+00
119 -5.9093065387781021e+00 -1.3907244672938850e+00 4.8017456247027157e+00
95 -6.9932186859916512e-01 -4.9828283953575054e+00 2.3607680578045160e+00
222 1.7331460880236815e+00 3.0099877727188775e+00 2.2879946702144274e+00
47 -6.9766991542409651e-01 3.3225533361721937e-01 9.0892154369610434e-01
120 1.6525139744975765e+00 2.8935982341857092e-01 -5.4602029026572785e+00
200 -6.2528768507964578e+00 -3.3013860134592301e+00 -3.1798053324541242e+00
226 -1.9202290026713438e+00 -3.6749397934829453e-01 -1.5724599390043761e+00
82 8.9749212110430177e-01 -5.7033466478331940e+00 -2.9644135320045684e+00
7 3.8670057786009032e-01 4.1189449737144388e+00 -2.2885134130685425e+00
62 6.4429232494160500e+00 -8.6958647367563391e-01 -2.9683152211323200e+00
208 1.2106722244680590e+00 -3.9180977517828626e+00 2.3639896028052734e+00
102 -1.9302241556947703e+00 3.9325848334067688e+00 6.1671543629469099e+00
127 -8.7246108243530729e-01 1.1939544033945424e+00 -4.4789972044855002e+00
81 5.8416954304244308e+00 2.3335786233286365e-01 -1.8933872911849521e+00
36 5.8832894667471134e+00 -7.7734361814773001e-01 7.8249093600887790e-02
233 2.6677108181003990e+00 1.0593316133736841e+00 2.9487155492276573e-01
240 -2.1249865765181415e+00 2.2060158420940104e+00 -1.9638442792733291e+00
35 4.1452463763721914e-01 -9.0571679780251912e+00 5.5862269028734417e+00
19 -2.8247594484731655e+00 -1.3719443361498027e+00 2.8022931688235628e+00
28 -2.9464294258232743e-02 -4.2249275531778459e+00 7.9444328884419702e-01
219 5.7682880576389550e+00 6.9200905994717159e+00 1.7900167979518957e+00
87 -1.1659635284693812e-01 3.8036283894990541e+00 -7.0439746858085983e-01
90 -9.3551187368315745e+00 -3.9611057433977503e+00 -3.1888331776125729e+00
59 -1.8074647461513831e+00 6.9573006229541745e+00 -5.2913304224802715e+00
184 -3.6166234975445666e+00 -7.8789637073500374e-01 8.1036483326540398e-01
150 5.3441598517133215e+00 7.1262243012519697e+00 -8.0369423087079350e-01
78 -7.5432036557352760e+00 -1.9181407691352250e+00 3.1163575292165535e-01
63 6.0073644137779549e+00 -6.3044562451221076e-01 3.7315090718891493e+00
99 -1.0185299012826365e+00 -3.0552752782861474e+00 -2.5091117273565948e+00
137 1.2538507463799069e+01 1.6494775752553479e+00 4.1300680189729144e+00
230 -1.8587536284986688e+00 -4.7994958472759969e-01 -7.6462602091469556e-01
214 -1.1498754418966732e+00 7.1108757304000019e+00 -1.5682992870781468e-02
207 3.5615304758213586e+00 -2.8817733650182000e+00 -2.7872379524626258e+00
235 -6.3074093238756683e+00 -6.3376183659926832e-01 -6.3897345125068474e+00
2 3.7117828711127174e+00 4.2817965007197030e+00 -2.5989607939539461e+00
146 -2.4125300921428550e+00 4.1997968385379547e+00 -4.0345285401637669e+00
20 -6.4685468685254417e+00 -3.2756362803552865e+00 3.1632427690120251e+00
25 4.0242884588648566e+00 3.3501568290307215e+00 2.2661820297293804e+00
165 -7.1139946351997416e+00 -8.9761699583653520e+00 2.5481214590324703e+00
212 5.1676926338874942e+00 5.7572325565238174e+00 9.8387227592194026e-01
72 1.5133760384066672e+00 -6.0444982081151866e-01 -7.6771777879815666e+00
121 2.1741232240195238e-01 4.3081898964121024e+00 -6.8403122951794151e+00
183 -7.5149718349957393e+00 -9.8377339743090531e-01 -4.2678210046737872e+00
213 9.4802795412991725e-01 2.4073058080858849e+00 4.2736554520097227e+00
110 -6.0670390497872440e-01 -7.7711939595486683e+00 4.1334528335213454e+00
177 -2.1437832230014662e+00 5.0123447105393915e+00 2.2303196578852114e+00
116 3.9097755593637085e+00 9.1217715003265507e+00 -5.9022289345967387e+00
245 6.3228033347710237e+00 -2.1269805520149139e+00 5.4066673950565498e+00
190 -2.4377830511988252e+00 2.0573025169113874e+00 3.4003508135517153e+00
14 -2.4858317547157620e+00 4.6589686211198229e+00 2.3618548882278061e+00
189 -2.9943265074949390e+00 -1.0604521912783520e+00 2.1955391067321877e+00
109 5.2355323527154560e+00 1.0915140878008072e+00 -5.5943063552958083e-01
16 2.2456785150098271e+00 -3.2915263429975736e+00 -3.0834870118191526e+00
74 2.3731052455785751e-01 8.3347593757347638e-01 -1.5237736290189705e+00
139 -3.3966164105628791e+00 6.0804462600532831e+00 2.4510902496659694e+00
34 3.1819380021665618e+00 -8.2749428344976583e-01 1.6174889349931798e+00