LAMMPS data file via write_data, version 16 Jul 2018, timestep = 5000000

250 atoms
1 atom types

0.0000000000000000e+00 2.1977000000000000e+01 xlo xhi
0.0000000000000000e+00 2.1977000000000000e+01 ylo yhi
0.0000000000000000e+00 2.1977000000000000e+01 zlo zhi

Masses

1 22.9898

Atoms # atomic

72 1 4.0721719995945387e+00 4.6378981581777827e+00 2.5671341183497738e+00 -1 -8 -11
119 1 2.1961522903040396e+00 8.4895116752282096e+00 3.8089712843762240e+00 3 -3 -2
110 1 4.1718097934286931e+00 1.2039764736550866e+00 1.1661547687885776e+00 -1 -5 -10
236 1 4.0698568192632001e+00 8.8010156934073525e+00 5.2939772632100301e-01 5 2 0
247 1 4.8134522876139957e-01 3.2151202035068587e+00 8.6867672315659605e-01 13 6 7
23 1 6.1344624260854790e+00 8.1326410621987435e+00 3.8057137236846925e+00 0 1 5
121 1 7.1959413311380480e+00 2.0247612284647500e+00 2.7501095987741828e+00 5 7 10
226 1 8.7459868558443232e-01 6.8564556900440596e+00 9.9371516020235340e-01 -7 6 5
36 1 7.1398709533653824e+00 5.2275434267764416e+00 1.0695106059037274e+00 -4 -9 3
137 1 1.0804401906214713e+01 7.1555972010591455e+00 2.8322182527417987e+00 -5 -5 -8
188 1 1.3441635299145172e+01 8.3543864689396994e+00 2.9035021053446575e-01 2 0 5
51 1 1.2251537744220705e+01 1.7285862712818088e+00 1.0753019132879151e+00 -1 -3 -5
118 1 1.4010593518102791e+01 5.6689757943073706e+00 3.9251070606250864e+00 7 -3 -4
14 1 1.0895513721052588e+01 1.0779217016686019e+01 1.8599013141795531e+00 4 -3 -3
214 1 8.5296324538935107e+00 8.1072759183965530e+00 5.6567476056963717e-01 7 -2 8
181 1 1.4353999362144709e+01 4.8099571935126333e+00 2.5964342314146904e-02 8 -2 11
176 1 1.4985041151463953e+01 1.0047240835307571e+01 3.3583377594270694e+00 5 -2 -16
88 1 2.1743884409557243e+01 1.0744786066762732e+01 2.1171704491240311e+00 -5 -17 8
183 1 1.9942794513483946e+01 4.1726707435239057e+00 4.1752588387306746e+00 -6 -4 1
92 1 1.8007531040623867e+01 9.9228256154385512e+00 8.4536494752308589e-01 4 -8 -4
103 1 1.9245188078869049e+01 1.2709321117797046e+00 9.0714965022523275e-01 8 1 1
161 1 1.6170210318934608e+01 7.0676296713555304e+00 2.0517556205711842e+00 -7 -8 -1
193 1 1.6765585513101946e+01 7.3151087173179963e-01 4.1127934641448940e+00 5 4 3
45 1 1.9580018431462854e+01 6.2105020700564548e+00 1.2679846221123110e+00 2 0 0
7 1 1.6598056601906706e+01 3.6966288008932562e+00 2.0266822630305779e+00 -9 12 -11
154 1 1.5415724177589738e+01 6.9994269556858402e-01 9.0570338311008003e-01 3 5 -3
138 1 9.5076842623151059e-01 4.7385207211524696e+00 7.8014675592104297e+00 8 11 -1
29 1 5.5256738700055754e+00 8.6651171797829925e+00 7.4043116404788076e+00 1 -5 9
13 1 4.1476457619974765e+00 2.0199551041231345e+00 5.4037179447874157e+00 0 5 -4
153 1 1.5680783255065096e+00 7.7867940374679057e+00 7.7510581378476271e+00 13 -11 -15
105 1 9.7284197524562821e-01 1.1149556082299246e+00 4.4766283766591179e+00 -1 -4 4
30 1 3.9690850998752860e+00 5.8828640036507807e+00 6.5750522660890214e+00 4 9 -7
59 1 6.9276041221099858e+00 4.3416966990853636e+00 6.1768244448978731e+00 8 3 -4
58 1 1.1913704920508448e+00 4.6937192176506626e+00 4.5995686153709689e+00 -12 -7 10
32 1 4.4119772862564428e+00 3.2419315967230475e+00 8.7121603097762410e+00 2 -2 -1
62 1 1.1236445772814363e+01 9.4463607949533248e+00 7.9328315981246531e+00 -13 5 5
46 1 1.2766479519996683e+01 6.1113162656239943e+00 7.1481177716825322e+00 2 2 -5
230 1 9.6731763496620218e+00 6.8235072316269951e+00 6.0206911591405090e+00 -7 1 10
192 1 9.1743725042446744e+00 1.0027628959330048e+01 5.3804630295263278e+00 1 8 -7
182 1 1.4006914714508767e+01 2.4490875467493405e+00 4.4144209878373823e+00 -13 -5 -5
217 1 9.2579347638005611e+00 4.0254944994701320e+00 8.3895993792476364e+00 -8 -6 -3
78 1 1.2719040067958348e+01 9.2885095390701551e+00 5.0179095709277801e+00 -10 6 -2
131 1 8.6274579739423327e+00 7.4974111702067125e-01 7.2225545262575004e+00 -6 4 2
232 1 1.2238901694938138e+01 2.3968065982306594e+00 8.1903743210598865e+00 -12 -12 1
99 1 1.0662271942171165e+01 3.0270192378283607e+00 4.5194394103565889e+00 10 5 -5
212 1 8.3193528606943037e+00 9.7241426026394624e+00 8.6420498632820326e+00 8 2 -5
213 1 1.5950232878791198e+01 7.2851266121951417e+00 6.0312105525877078e+00 -12 3 3
26 1 1.9016207635466465e+01 5.9101840113614230e+00 7.4309848046354974e+00 9 -1 6
157 1 1.5061374151282973e+01 1.2167607192324659e-01 6.6937432977744846e+00 -8 1 -4
66 1 1.6110718029435642e+01 4.0199088870467943e+00 6.6045323798032900e+00 3 5 1
151 1 2.1635782209687768e+01 9.9634537823953107e+00 6.6612833178213862e+00 11 2 2
42 1 1.9183979382184134e+01 1.7477612245636875e+00 5.8660619575454875e+00 -7 0 5
21 1 1.8621222256608444e+01 8.8988559580278483e+00 8.6766004232473701e+00 2 -10 -3
86 1 2.1271810151690893e+01 7.3315959186859843e+00 5.1323431890566464e+00 1 -13 9
5 1 1.9353994503421529e+01 2.9635115326920753e+00 8.7873192956944468e+00 2 -2 3
170 1 1.8458689785027669e+01 9.3704461228817735e+00 4.5040494919769483e+00 -4 -2 -3
180 1 3.5419119702787198e+00 3.4702389873895725e+00 1.2166271124930928e+01 -3 0 9
130 1 5.3023716290901710e+00 9.6014463141679194e+00 1.0954309194853360e+01 -1 4 -2
227 1 6.4200123464183330e+00 6.4409602433942679e+00 1.0165236368537670e+01 4 -1 0
164 1 1.1492849109458063e+00 8.2595196712802021e-02 1.1604786402478878e+01 1 5 6
136 1 7.8815794688454777e-01 9.9053663924271227e+00 9.9807464536898145e+00 14 7 -3
239 1 3.0042717862392436e+00 6.7201518457823815e+00 1.0553974346247484e+01 -9 -1 -13
169 1 2.1278321330793659e-02 5.9622382999986465e+00 1.0769966325572069e+01 3 8 -4
147 1 1.2539683606482430e+00 1.8261981331398807e+00 8.9009239786463326e+00 -6 3 4
60 1 1.2738446595368208e+01 2.3852368188074693e+00 1.1153909768862373e+01 5 7 -11
224 1 9.7995179924562450e+00 7.0806962799141671e+00 9.8103574856169811e+00 9 -9 -1
120 1 1.0825741465575229e+01 4.9122795780479560e+00 1.2125710874421010e+01 -1 1 3
65 1 1.3295925140967856e+01 6.3191453994278586e+00 1.1731822722710904e+01 -2 -1 4
209 1 7.4859457351012093e+00 2.4207521693601461e+00 1.1109806503658593e+01 8 3 6
3 1 9.5765777068166464e+00 9.7258420699494685e+00 1.3085361216352677e+01 -10 0 4
125 1 1.4607468236356651e+01 8.1189720955360123e+00 9.3259957925366432e+00 -7 -8 -5
102 1 2.0807061390541598e+01 3.0600398946328942e+00 1.2314209007827349e+01 -5 -10 -7
210 1 1.7638128650809730e+01 5.5347185021560881e+00 1.0863153008722406e+01 -2 11 0
82 1 1.5332407547679425e+01 4.4666525994483335e+00 9.4048549999833835e+00 5 -3 8
150 1 1.9759625447668146e+01 9.1179173244579257e+00 1.1559055138226650e+01 14 3 -2
179 1 1.6576705183688173e+01 1.2902611675907762e+00 9.6557478416966145e+00 5 -4 -6
63 1 1.6951388098360326e+01 2.3759384395653855e+00 1.2553723154025038e+01 1 -5 -3
67 1 1.6551322927159724e+01 8.8658977718203893e+00 1.2621578023866249e+01 -7 -3 5
34 1 1.9354540832842780e+01 6.6603778888424614e-02 1.2954737700392203e+01 0 8 12
40 1 3.0335036421899821e+00 1.0589575258351188e+01 1.4479802689258426e+01 -8 3 -6
229 1 6.0383113241006789e+00 7.7350035583733154e+00 1.3262921760415203e+01 3 -3 4
198 1 4.5376634038021368e+00 6.4256670280085693e-01 1.4964303833803285e+01 -4 2 6
148 1 1.1387148162734098e+00 4.6069950700735829e+00 1.4400676313260934e+01 0 -8 -2
235 1 2.5416459982330122e+00 7.0076168930954958e+00 1.5384990614889871e+01 -2 -1 4
203 1 4.1560164873621810e+00 4.2999429663004127e+00 1.7100552427561478e+01 5 0 9
49 1 1.4307858013658352e+00 3.2848135247117993e-01 1.5223629975830262e+01 -3 7 2
55 1 1.3162208525774846e+01 3.2779795695946978e+00 1.4580413894045304e+01 8 0 -4
231 1 1.3453441042547539e+01 9.2980399998002436e+00 1.3326318741987539e+01 4 -3 0
178 1 8.7179790638237442e+00 4.3700605788647069e+00 1.4196277583788138e+01 1 -2 2
52 1 1.4435068667310469e+01 6.6121096747589156e+00 1.5409597412016018e+01 -5 6 -16
54 1 1.0721111447791788e+01 4.0778493692070565e+00 1.6597041805321943e+01 -2 6 -3
77 1 1.1500632838559877e+01 1.0049270369906010e+01 1.6444837295238887e+01 -2 5 3
17 1 8.8124561161431973e+00 5.7057952042370674e-01 1.7126042045399448e+01 13 -4 -9
8 1 1.2535359241460625e+01 3.9962387345190270e-01 1.6507830806648933e+01 -1 9 -2
172 1 1.1053456978203398e+01 7.0923644227858746e+00 1.4859545001459971e+01 -5 6 13
2 1 7.9063445233777250e+00 1.0930837582913627e+01 1.6961901144826307e+01 8 -3 0
149 1 1.0423462438848738e+01 1.4334385243303547e+00 1.3904703379254414e+01 5 -9 3
93 1 1.8855629655062735e+01 5.8885454068622103e+00 1.3837927096885700e+01 5 0 4
215 1 1.7567080524438119e+01 5.6530873534356205e+00 1.7115354607526271e+01 -7 -4 -10
197 1 1.6985785234489683e+01 1.0211414369143343e+01 1.6589520708186672e+01 2 2 5
185 1 1.9916552509531225e+01 3.2931596398190739e+00 1.5421738743570815e+01 3 2 -16
57 1 2.1204189381137486e+01 8.7453440264018028e+00 1.4270197605824594e+01 1 -9 -3
191 1 1.6613738688180657e+01 2.2636459424976150e+00 1.6058767074307610e+01 -2 5 -5
25 1 1.9796668953742913e+01 8.7570581058297989e+00 1.7464325086393245e+01 -7 0 -14
144 1 5.2927535914515600e+00 7.6035811467590109e-01 1.8511823682034997e+01 -9 -1 7
106 1 1.3420613577877891e+00 1.0469307408703939e+01 2.0859467295589837e+01 0 2 7
177 1 4.1428199363336349e+00 4.0937675015680624e+00 2.1035359741712778e+01 -6 13 -3
206 1 6.3270804189772427e+00 6.0322708698581691e+00 1.9931025527550009e+01 5 3 -4
156 1 1.2118502913822660e+00 3.9826911279927341e-01 2.0771415511772485e+01 -3 -5 0
223 1 1.8744868111167179e-01 6.1559000194018285e+00 1.7621378822123493e+01 1 -1 4
41 1 2.3089794715350851e+00 6.8012745781168835e+00 1.9662094781191691e+01 -18 -1 -4
117 1 5.4900914846512772e-01 2.7535262338880515e+00 1.8591530380211964e+01 -8 -1 -2
208 1 7.2859522575186819e+00 1.6814448846869781e+00 2.0955753827185788e+01 -5 1 4
97 1 4.6303831647523781e+00 9.5018167246182461e+00 1.8116847254872610e+01 -8 13 3
241 1 1.1001185221034721e+01 9.6918705972185677e+00 2.0119552489188397e+01 2 0 1
31 1 1.2422364578661785e+01 6.8038167404921843e+00 1.8306198307432137e+01 6 7 2
111 1 1.4187655241586819e+01 4.0676330268844456e+00 1.8502138509166020e+01 8 -3 3
114 1 1.1210788421357270e+01 5.2550926340692854e+00 2.1073875926745636e+01 -8 -2 -5
83 1 7.8032376436036621e+00 3.9088468576466839e+00 1.7717909906768249e+01 7 2 1
173 1 1.1264046170348529e+01 1.9204057137594797e+00 1.9669048774894716e+01 -7 -5 11
69 1 8.4317365008736651e+00 7.1432650183289814e+00 1.7676656208662237e+01 3 16 -6
195 1 2.0594795237160675e+01 8.0819696515225488e+00 2.0459562329953663e+01 -2 0 0
70 1 1.4923697704251623e+01 9.2054433515490537e+00 1.8165032189092507e+01 8 -3 0
166 1 1.4939498149862196e+01 4.0284736792222786e-01 1.8754553910627362e+01 2 -11 1
158 1 1.9581367377224428e+01 8.9962559466030745e-01 1.9160811490747843e+01 5 -1 15
202 1 2.0401205597464671e+01 4.6724021485602227e+00 1.9571686725745252e+01 7 2 5
76 1 1.7925957879756726e+01 3.2582903067444753e+00 1.9837706852888914e+01 1 -5 2
123 1 1.6854665323303866e+01 6.8961353641437668e+00 2.0753365190216151e+01 -4 6 4
200 1 2.9792893486615615e+00 1.4103799256014765e+01 1.5066624856995898e+00 4 3 0
220 1 4.2025805665969234e+00 1.7618095709923264e+01 2.5465637156242646e+00 8 -4 5
165 1 4.1490886548709103e+00 1.1279409251581512e+01 2.3687711316795754e+00 6 0 10
68 1 5.8865991105719662e+00 2.0747417141798568e+01 8.2029252966048216e-01 -5 -3 2
242 1 5.6759379451665950e+00 1.5252037827381505e+01 1.0715173051770399e+00 10 3 -7
163 1 4.9333861255924631e+00 1.4539714093073398e+01 4.2929857455002374e+00 -17 -7 4
211 1 1.9701616988212995e+00 2.0098383119374322e+01 1.1396312890876761e+00 4 5 -4
160 1 1.1662726326337556e+00 1.6163528320432508e+01 3.4429369422108707e+00 1 -4 -7
81 1 1.1056003279896683e-01 1.3268764316634602e+01 4.0849236409284693e+00 -4 -1 -1
240 1 7.1390932762552950e+00 2.0412480681152612e+01 4.2494347061447542e+00 2 -5 -3
89 1 1.0276782918878991e+01 1.8357726123125396e+01 8.1402708651654154e-01 6 4 -5
71 1 1.4367075302614925e+01 1.3132063859581814e+01 1.8460670683808187e+00 4 -2 4
167 1 8.2132920616706855e+00 1.7203428210559071e+01 2.8092492554131652e+00 -2 -8 -12
159 1 7.7836772801398517e+00 1.1523370112954584e+01 3.1049902418979713e+00 -3 7 -10
47 1 9.8053701878092632e+00 1.4349611535738402e+01 1.3419057991976959e+00 -4 1 13
80 1 1.2911954158767228e+01 1.9975069380893895e+01 3.0899947167465527e+00 3 -3 2
1 1 1.3924209115491310e+01 1.7120803099873314e+01 1.4790127325639411e+00 4 -1 1
91 1 9.4425834148752479e+00 2.1736972737394208e+01 1.9269422349598104e+00 -7 -5 -7
19 1 2.1007002468394521e+01 1.9915951815172210e+01 3.8456728176338535e+00 8 3 4
4 1 2.0557527652188178e+01 1.4207190416382424e+01 8.8396959868701930e-01 5 -2 3
107 1 1.7474989899902685e+01 2.0257079404368806e+01 1.9167234202810863e+00 -3 0 -1
142 1 1.5747397838596843e+01 1.5813338109441860e+01 4.2738779442831483e+00 -2 -2 -13
112 1 1.9418639204261375e+01 1.6287319187181993e+01 3.1706218779663558e+00 3 -2 -5
205 1 1.8538727848426511e+01 1.2892768828255424e+01 4.3286177844255995e+00 7 6 1
73 1 3.2998641572906400e+00 1.1595986889909495e+01 6.5373247188370156e+00 -5 -5 -2
140 1 3.4052543449882577e+00 1.6309293351380273e+01 6.7281777753967322e+00 -5 -9 4
10 1 2.0983369861278796e+00 1.9037018481187388e+01 4.9201245550770798e+00 -8 -4 -9
12 1 1.0229945364425963e+00 1.3990325811108008e+01 8.2811345414382203e+00 -2 -7 10
39 1 6.7393818447850204e+00 1.6785369460287914e+01 6.4249609925351230e+00 -11 4 -3
201 1 6.4592490724345613e+00 1.2668643504225216e+01 6.3042644177090210e+00 6 8 -7
132 1 4.6144798499659645e+00 2.0490703272546732e+01 7.4519241583110079e+00 11 -4 2
245 1 1.2035854470695430e+01 2.1500868991614247e+01 6.1689559641639988e+00 -23 15 7
250 1 1.0421438810466709e+01 1.7550699160392817e+01 5.3795866918709745e+00 -7 -1 3
199 1 1.0498742590106177e+01 1.2720449778497107e+01 8.4437324109048220e+00 2 -3 6
24 1 1.2728220652270975e+01 1.5250370525721541e+01 7.6820501503170648e+00 1 7 -1
246 1 1.2660476237736059e+01 1.3235958290180580e+01 4.9321095144983920e+00 -2 -4 7
221 1 8.8685001362269453e+00 1.9403797038438647e+01 8.1167937170115625e+00 5 1 5
190 1 9.4094249261426377e+00 1.4446725232797425e+01 4.6645984631828137e+00 5 -5 -7
194 1 8.7115146448104799e+00 1.5686610028880235e+01 8.6374866235832286e+00 -6 -6 -9
141 1 1.5143931770040497e+01 1.8424463431783792e+01 7.2748869039415247e+00 1 7 6
218 1 2.0051598901670008e+01 1.7869253410131453e+01 8.4094868430768948e+00 0 5 -6
243 1 1.6605507721478720e+01 1.5225841353869990e+01 8.5333903925357593e+00 9 0 -3
162 1 1.7891635803357175e+01 1.9427060749960166e+01 5.5849526956727393e+00 5 0 -3
174 1 1.5635599565227782e+01 1.1578300375366274e+01 6.5521302192429243e+00 -4 5 -3
98 1 2.1466910434006412e+01 2.0709697973425563e+01 6.7907795415456791e+00 0 1 6
228 1 2.0774689447647098e+01 1.5392134945295595e+01 6.4161335992787825e+00 -3 1 5
196 1 2.7277326406882607e+00 1.2090047433253014e+01 1.0963892753241836e+01 20 6 3
139 1 6.2705155415666205e+00 1.5621213458886681e+01 1.1840796145110906e+01 1 4 3
109 1 3.1713815258911318e+00 1.9561206968495778e+01 1.2467623809026991e+01 0 4 2
216 1 2.6827426483442252e+00 1.6170503084813976e+01 1.1408125829499872e+01 2 -3 -2
79 1 5.4545186350738710e+00 1.8828542493101779e+01 9.6244570637003388e+00 7 -3 7
122 1 1.4777254245237341e+00 1.8652636330445635e+01 9.2995870780361312e+00 3 -3 -3
16 1 5.3666627240387390e+00 2.1917295757930809e+01 1.0667387383607201e+01 4 -3 11
33 1 4.8841608434414931e+00 1.4850545711204179e+01 9.1425732808759896e+00 4 10 0
64 1 1.2746405648894036e+01 1.1867776641079427e+01 1.0317509904464503e+01 4 -5 -6
145 1 1.2128889716723075e+01 1.7953508563764501e+01 9.5396910859981841e+00 3 -7 -6
108 1 7.5026943891744224e+00 1.2681765128095272e+01 9.5911474552582199e+00 -1 0 11
128 1 1.0151561924569281e+01 1.6636112828847686e+01 1.2725173796069541e+01 -9 7 -2
189 1 8.4362584874206625e+00 1.9538633931532761e+01 1.1230522676991619e+01 5 -5 2
95 1 9.4589393466983331e+00 1.3925450845524111e+01 1.1547188819874416e+01 7 5 9
237 1 1.3289042341395461e+01 2.0828167250444242e+01 1.0391582104607080e+01 -10 8 1
249 1 1.8858666780800785e+01 1.5940184961303489e+01 1.1676212350182963e+01 -8 -4 -5
18 1 2.0720802751340074e+01 1.8383498897174725e+01 1.1995419094334371e+01 -1 3 0
175 1 1.6258155614632450e+01 1.1026394100259839e+01 9.7228149363064489e+00 -10 -7 -1
113 1 2.1818166383160097e+01 1.4512502232731938e+01 1.1472046279143736e+01 1 5 -2
96 1 1.7179571480737138e+01 2.0390718142346628e+01 8.8242972632860361e+00 0 2 -6
87 1 1.7364376448716406e+01 1.9901946780212452e+01 1.1710086663647532e+01 2 -1 -3
53 1 1.9437350379557110e+01 1.2621732916949332e+01 9.2799894682027890e+00 -4 11 2
9 1 1.5233999366406469e+01 1.7441594318145420e+01 1.1746436821048400e+01 6 -2 12
222 1 1.9969354070460383e+01 2.1665876249610868e+01 9.6687560277435161e+00 4 -7 -2
94 1 1.6932939199565254e+01 1.2377546316234641e+01 1.3182798705557776e+01 6 -5 -6
56 1 2.2760314142673859e+00 1.7125118469844303e+01 1.4738522161450703e+01 4 0 3
184 1 2.6805632693022501e+00 2.0097005805835405e+01 1.7421962438788462e+01 8 1 -8
171 1 5.5958588882882880e+00 1.8647894206206779e+01 1.4602469891868068e+01 -9 -6 2
28 1 3.2393437951766426e+00 1.3603439170355330e+01 1.4104470378095060e+01 8 10 11
207 1 8.6498296144583264e-02 1.9111439015037401e+01 1.6346331420893581e+01 6 -6 -8
146 1 5.2013600745767237e+00 1.4026033931698425e+01 1.7002062727006365e+01 4 1 0
48 1 6.4494890754674019e+00 1.1114412935782518e+01 1.4081587716346945e+01 -8 -16 3
129 1 8.0494377496636247e+00 1.4219046295065155e+01 1.5002026782944107e+01 -1 -12 -4
187 1 7.7198091191830729e+00 2.0735002375700546e+01 1.4220442798025905e+01 -5 5 -5
133 1 1.3811856108584852e+01 1.4815381334402545e+01 1.3767921923940756e+01 6 3 9
155 1 1.1187289741112950e+01 1.5029398772175700e+01 1.6308871789740699e+01 13 3 -1
225 1 1.0106375372176867e+01 1.9224205069272873e+01 1.6460978996968198e+01 1 1 8
127 1 1.3842727944364464e+01 1.6972496401863381e+01 1.6183168103792632e+01 5 -12 -4
204 1 1.1350333282763426e+01 1.2087310497772714e+01 1.4183342328682100e+01 -9 -9 8
6 1 1.2274047878396106e+01 1.9911080398544559e+01 1.3665467570546937e+01 -7 2 7
115 1 1.5639336244995963e+01 2.1533394849144351e+01 1.4313676819031111e+01 -3 -5 -14
11 1 1.6999155098863568e+01 1.4772292981623497e+01 1.5741911282400814e+01 1 7 2
143 1 1.8339008561533451e+01 1.7966674050097083e+01 1.4668662552528520e+01 -1 9 -9
124 1 1.4688819517427048e+01 1.2773595259852868e+01 1.6630968973190303e+01 -23 -9 1
85 1 1.6921274394230380e+01 1.9687608358649797e+01 1.7231200151513566e+01 -1 0 4
75 1 1.9620057297544264e+01 1.3619911678570125e+01 1.7476952994813782e+01 -8 -3 -10
37 1 2.1423246368745524e+01 1.5800317249166875e+01 1.4920993432766380e+01 4 -9 0
104 1 1.9178386859790614e+01 2.1831223550219669e+01 1.6035914913355533e+01 1 11 5
101 1 2.0391263200522332e+01 1.2349196270249776e+01 1.3570454451944437e+01 -3 1 -15
126 1 3.1306476456841019e+00 1.4773153378282585e+01 2.0536966754002123e+01 8 3 13
44 1 3.5649554599922877e+00 1.8233086310071752e+01 2.1044259936174857e+01 4 7 11
90 1 6.9540227750080010e+00 1.9967623849083949e+01 1.8390854430568425e+01 -7 7 -6
238 1 9.5440540241669192e-01 1.6824309515416793e+01 1.8103384917786599e+01 -4 2 12
15 1 4.3756657067315796e+00 1.6954305096350367e+01 1.7649310883384214e+01 7 -4 -3
244 1 5.1653705618076424e+00 1.2357610455012097e+01 1.9962598603747157e+01 3 3 -4
186 1 4.2433643443978497e-01 1.7182753872045076e+01 2.1820438208944065e+01 -6 -6 -7
100 1 9.5111799747607917e-01 1.1341402849330210e+01 1.7709020536014844e+01 -15 10 -6
27 1 1.2401308068551000e+01 1.3413032908189201e+01 2.1355790932481394e+01 -9 7 5
134 1 7.6868381929761300e+00 1.4878033604012058e+01 2.0219076746200241e+01 -1 1 -8
248 1 7.7610873218125978e+00 1.8514591771819202e+01 2.1170748758048322e+01 -2 2 -3
84 1 7.4644915716046532e+00 1.6824277523772437e+01 1.7625387178075265e+01 -2 -6 -2
61 1 9.4784039316684225e+00 2.1212067066884536e+01 2.0000386627698600e+01 16 3 -6
219 1 1.0380513209955389e+01 1.6279037204422465e+01 2.0343973732182697e+01 5 -6 -9
20 1 8.2047462093318995e+00 1.1150968201735207e+01 2.0265682251162790e+01 6 1 -5
22 1 1.2529508980731105e+01 2.0812843505509544e+01 2.1529774483904433e+01 0 -3 5
74 1 1.2553168463293407e+01 1.8254988327251109e+01 1.8970289927134335e+01 -2 -4 -8
43 1 1.0401178290642928e+01 1.2586858110657749e+01 1.8029715406057910e+01 -3 1 12
35 1 1.4890279657658761e+01 1.5476622654918879e+01 1.9018907043384356e+01 7 -1 -5
116 1 1.9513906513005779e+01 1.7234098309835588e+01 1.8097295662497292e+01 -6 -8 12
234 1 2.1855432760767705e+01 1.3731395221111926e+01 1.9949031287675002e+01 1 2 9
233 1 1.6982761421740548e+01 1.4898452610376141e+01 2.1894850456503058e+01 -5 1 1
50 1 1.6380232614417267e+01 1.9538730767108628e+01 2.0438578470402359e+01 2 8 1
38 1 2.0926040844137635e+01 2.0001821559209105e+01 1.9297151089089006e+01 -3 15 2
152 1 1.5607017758893235e+01 1.1909810983633793e+01 2.0525856373566018e+01 -2 -4 -9
135 1 1.8835791062734259e+01 1.1379668549932550e+01 1.9941427276466278e+01 0 9 9
168 1 1.9306354548819090e+01 1.8008124628603991e+01 2.1714706644454985e+01 -8 -4 3

Velocities

72 -3.3423925802786558e-01 -3.7879130145830491e+00 9.7151902268819135e-01
119 3.5352598682463063e+00 -1.3138173669387471e-01 -2.0536595640799913e+00
110 4.1164353305098995e+00 5.5191006271753693e+00 3.5727608726069757e+00
236 -7.9248226305290104e-01 -2.7993700118018410e+00 5.8468203097008402e+00
247 1.5337802789572086e+00 -1.0257979019399310e+00 -2.9678969842643754e+00
23 5.5777429562618526e+00 -1.8515410411728497e+00 -6.9752612717931308e+00
121 -2.0397330469547192e+00 -1.4983706739124281e-01 3.2453908536190514e+00
226 -2.5535811991010178e+00 1.1276731246788477e+01 1.6372371790832816e+00
36 8.5937626840577797e-01 -4.0765064427867914e+00 -1.2693494093400457e+00
137 6.7703347634919664e-01 -5.5273608795215665e+00 3.7451343154277379e+00
188 5.3602994134418829e+00 -4.1350426527669504e-01 3.6327794391685044e+00
51 -3.4341765751708020e+00 -3.4946227864757020e+00 2.2066161747441839e+00
118 1.0129442099816378e+01 3.7354974561199539e+00 1.0427277267914357e+00
14 3.7694820390696906e+00 -1.2653939082051939e+00 -2.7767215739022206e+00
214 4.0878592330449601e+00 1.8428231313536131e-01 3.6572955662643225e+00
181 -6.6122217323452643e+00 -6.6381338147782714e+00 3.8880002457403124e+00
176 2.4804165907236686e+00 3.6992224783734129e-01 -2.0804251865034664e+00
88 2.0143176316735220e-01 -4.4546734775962404e-01 7.3899933533893514e-01
183 -3.5309168765310623e+00 -6.3694715556261476e+00 -2.6385128699460063e+00
92 4.4006953620253086e-02 -4.8916800476008238e+00 2.8445745025297176e-01
103 -8.9217084331289787e+00 4.7923837265938403e+00 5.5440732239422297e-01
161 -1.9984223035250803e+00 7.0468477162831284e+00 -1.3070784974721388e+00
193 -4.5383633305966606e+00 4.9361231173946729e+00 -4.8143786501714034e+00
45 8.6587607627831886e-01 -4.9951423394454038e+00 -4.4722197372177943e+00
7 -7.9469593154169760e-01 5.0307365395342565e+00 -5.1809178735098182e+00
154 4.7783838413512818e+00 3.5646471109347211e-01 -3.8841200054641800e+00
138 -5.3780099602523528e+00 3.3959429684795146e+00 4.6848812326733666e+00
29 -2.3926687957379200e+00 -2.8934980317157315e+00 2.5403981153603739e+00
13 1.2905992945634772e+00 -6.2725932175213106e-01 -8.7380844709803729e-01
153 2.4064073105546382e+00 5.1135046143057590e+00 5.6359126921482625e+00
105 2.1741470957115290e+00 -5.7204643336040639e-01 -7.9019413542199048e+00
30 -4.3427169978247408e-02 -1.8113133644277912e+00 1.0444292171714925e-01
59 2.3723059359860921e+00 2.0459038020952622e+00 -6.4258965427337529e+00
58 -4.6236861115245205e+00 -2.0862606133416528e+00 -1.9598239325843265e+00
32 -1.9299300594215347e+00 -2.0085201580398846e+00 -2.0511796776540172e+00
62 -3.0539809678115453e+00 -1.0878667050438928e+01 5.3131506265575181e+00
46 4.1445320437911191e+00 -4.5451634803460630e+00 1.5775997432560684e-01
230 -7.3574234055729146e+00 1.2376846177502256e+00 2.9586412488512606e+00
192 3.5025896950575747e-01 9.2853772055218826e+00 1.6182776142251594e+00
182 -1.8136808489947179e-01 -3.5247682549972703e+00 -3.1196316978125633e+00
217 8.0359493620324807e-01 7.6545871732212445e-01 4.2288474105112686e+00
78 -1.3368144866292007e+00 -2.3784140588326554e+00 1.9360660366636524e+00
131 -5.3132931893466062e-01 -3.7010972281964110e+00 1.4329065331605819e+00
232 -5.0487169926372044e-01 -1.5807269748287234e+00 -2.2732306306106058e+00
99 1.1816405473610314e+00 5.1899097369458969e-01 1.2355233237474355e+00
212 1.8445602233149525e+00 -2.8764730885702781e+00 -6.1183138261604597e+00
213 -4.1819016851513089e+00 -4.6272117393942818e+00 -7.4831797435370628e-01
26 -3.0203547373107678e+00 1.1084634862224638e+00 7.3962900248500996e-01
157 -2.4753265591150893e+00 -3.8297662159083412e-01 3.1928388187164241e+00
66 5.4018547508859545e+00 1.0142953590132298e+00 4.5213185986068821e-01
151 -1.3033530811689827e+01 -4.4447151599746926e+00 -8.9161189187970924e-01
42 1.0278908972871954e+00 8.8767534189127500e-02 5.3742060551322846e+00
21 -4.3099789632900309e+00 -4.6537833939593174e+00 -1.9454874642698261e+00
86 -5.5171721549512742e-01 -2.0271020443320635e+00 7.0850851549082670e+00
5 -2.9165951410239233e+00 4.1348722290424202e+00 1.0731630933873129e+00
170 -1.0774086023472327e+01 -6.0075377358344983e-01 5.0793440071162168e+00
180 -3.7188693067114671e+00 1.9093086574981604e+00 -3.2059541116073507e+00
130 9.5657741462488421e-01 -3.2914703625063363e-01 -1.5362971614645939e+00
227 7.4352797788219140e+00 3.9270356224855925e+00 -2.6457346068626150e-02
164 -3.9399741339294563e+00 2.5614202280301299e+00 4.5933289407772886e+00
136 9.1581745181592584e+00 4.2532617413434375e+00 5.5109694660810895e+00
239 -3.3616599206998781e+00 1.0544559700500367e+00 3.1536643477511670e+00
169 -1.4661512489218829e+00 -2.6129140140171994e+00 -6.0845212089878564e-01
147 -2.7728478944269003e-01 2.3156256189493779e-01 9.2291268385347305e+00
60 6.1104949830325295e-01 5.4473392270921144e+00 5.0555004093749156e-01
224 1.7533882215312457e+00 -2.8344727287303404e+00 -4.9983899335312785e+00
120 -7.2953210696225836e+00 -4.3078595364859018e-01 8.1967543044086124e+00
65 -9.5407738858662938e-01 -4.3436635158721399e+00 4.8020142168351700e+00
209 -4.0624353441513010e+00 -1.6183928964346588e+00 -2.2296786115173330e+00
3 -3.5241916297676923e+00 5.3705008940346692e+00 -3.5299888445799201e+00
125 -1.8775077327758158e+00 6.7548150351483542e+00 4.2981756497984875e+00
102 -9.6057089781161370e-02 5.8490300330658651e-01 -2.6527131490393647e+00
210 7.3843825210833351e+00 5.4086213036517092e+00 3.7186520889715640e+00
82 5.2361350769692373e-02 4.2331079840229613e+00 5.0330736536225107e+00
150 -6.0699468160049874e-01 4.5813650309499604e-01 1.0272333753635039e+01
179 -6.3218824628876558e+00 -7.6875709757741795e-01 -1.0220286987284357e+01
63 -3.2099057795413031e+00 3.7639709043630178e+00 -3.7182746499586021e+00
67 9.3259540012334625e+00 4.2257321882453907e+00 -1.7743984058230762e+00
34 9.8916136904708498e+00 4.0260240034408721e+00 -2.8237342417434325e-01
40 3.7035101644446780e+00 2.0017406108712095e+00 1.0947441509773974e+00
229 2.5440379284669716e+00 -2.0376808809955613e-01 -9.3987281253197086e-01
198 1.0680872225738950e+01 -3.1334774787904069e+00 -4.2885621714996525e+00
148 -2.1962352821746962e+00 7.1315582279437821e+00 -2.0982178837159311e-02
235 -1.6524836470802802e+00 1.9359580474408173e+00 7.4887296403625436e-01
203 -3.4455504358323656e+00 4.6225594622350691e-01 -5.4130143114140576e+00
49 6.3440142629354701e-01 -1.9212766429332888e+00 3.7350189504390960e+00
55 -1.1812685868638508e+00 -2.6456033828911720e+00 -3.5633729833487671e+00
231 -3.2759920625127514e+00 -1.4388921526630545e-03 -8.5172443722508562e-01
178 1.2610790868817219e+00 -1.8332372771096401e+00 -5.0294197711154984e+00
52 -2.6274710370054128e+00 -1.9289252540684827e+00 -2.8451619870412403e+00
54 2.8684209774449028e+00 -1.2508445567466182e+00 6.2357282991296570e+00
77 -1.0190171348810779e+00 -1.7226209977783260e+00 -1.4953494690975706e+00
17 8.8542734716959037e-01 -1.1428771145062808e+00 -5.3277656413894974e+00
8 -4.8076044748141893e+00 -1.6969133076581167e+00 -1.4834391781167688e+00
172 1.1221369421952569e+00 -1.0799245961361215e+00 -7.8679291423302944e+00
2 -2.8180546246177349e+00 1.8014244381697979e+00 -1.8630760304757128e+00
149 4.4314733712077672e+00 -2.7684843354791955e+00 3.9904856276530931e+00
93 -6.4194445936670181e+00 5.8476134911772562e+00 2.0158205354989818e+00
215 7.3268391536999877e-01 -2.7175523329927560e+00 -3.3441642104556681e+00
197 -1.0252540378431232e+00 -1.2365058034750780e+00 -4.5012817576750388e+00
185 1.3832434750534437e+00 1.9944389580731889e+00 2.2375149080872383e+00
57 3.9029989282322504e+00 1.1487917999195878e+00 -3.3208667583912463e+00
191 1.0128586912603703e+00 2.4097069114471990e+00 6.6387526874829010e+00
25 7.8582935338178288e+00 5.2783822993740239e+00 2.9524434519567964e-02
144 5.2066500031022267e+00 -4.2515074860727398e-01 2.4024204270133529e+00
106 3.3903298148044279e+00 1.1716139440595212e+00 4.5878038208526446e+00
177 2.0762263772785041e+00 3.9510647249677922e+00 2.6321223375080920e+00
206 -3.5290692876888352e+00 1.3146774618873294e+00 5.5056476174701405e+00
156 3.7868968206989835e+00 -3.4204289167472348e+00 1.8707689212909264e+00
223 5.6083074181897778e+00 5.1419957131221787e+00 -8.7636444812877841e+00
41 3.4031407748692581e+00 -1.0240094670162716e+01 9.7415822747217318e-01
117 -4.6282130876519361e+00 8.9354471873580561e+00 -1.5851099490615850e+00
208 -3.3319057474126018e-01 -6.7231216374039491e+00 2.6365562142558813e-01
97 4.0418701865862658e+00 -7.9736461252136701e+00 -7.9471331112460541e+00
241 -4.0477174450135047e+00 5.2824697945755190e+00 -7.9672743972062610e-01
31 -5.1198238209613738e+00 -2.8839803248070712e+00 4.1714076247049342e-01
111 -2.2213270685445505e+00 2.1382814484502597e+00 -4.0945658535895904e+00
114 -8.2666706362432862e-01 -8.4348666244436668e-02 3.9190870786969638e+00
83 -2.2432998606352816e+00 -2.6271646967196669e+00 3.8042297030797814e+00
173 -2.9006886904256901e+00 -6.6228425553266168e-01 1.5858286497979452e+00
69 4.9434754801398589e-01 3.4022241649185142e-01 6.3204259587914557e-01
195 -2.3288609545376735e+00 -4.2373925943100694e+00 -1.2146619425507060e+01
70 4.0029594277209277e+00 2.9361527871390152e+00 2.2086419097399137e+00