LAMMPS (16 Jul 2018)
echo both

include		in.temp
variable	temperature equal 500.
variable	tempDamp equal 0.1 # approx 0.1 ps
include		in.pressure
variable	pressure equal 1.
variable	pressureDamp equal 1.0
include 	in.seed
variable	seed equal 74581
units		metal
include		in.box
read_data	data.equil
  orthogonal box = (0 0 0) to (21.977 21.977 21.977)
  1 by 2 by 5 MPI processor grid
  reading atoms ...
  250 atoms
  reading velocities ...
  250 velocities

variable 	mass equal 22.98977
mass            1 ${mass}
mass            1 22.98977
include 	in.setup
variable	out_freq equal 500
variable	out_freq2 equal 500

neigh_modify    delay 10 every 1
include		in.na
pair_style      eam/fs
pair_coeff      * * Na_MendelevM_2014.eam.fs Na

timestep	0.002 # According to Frenkel and Smit is 0.001

thermo          ${out_freq}
thermo          500
thermo_style 	custom step temp pe press lx ly lz xy xz yz pxx pyy pzz pxy pxz pyz


restart 	${out_freq} restart.lmp restart2.lmp
restart 	500 restart.lmp restart2.lmp



# NPT

fix             1 all nve
fix             2 all temp/csvr ${temperature} ${temperature} ${tempDamp} ${seed}
fix             2 all temp/csvr 500 ${temperature} ${tempDamp} ${seed}
fix             2 all temp/csvr 500 500 ${tempDamp} ${seed}
fix             2 all temp/csvr 500 500 0.1 ${seed}
fix             2 all temp/csvr 500 500 0.1 74581

velocity        all create ${temperature} ${seed} dist gaussian
velocity        all create 500 ${seed} dist gaussian
velocity        all create 500 74581 dist gaussian

run             500000 # 1 ns
Neighbor list info ...
  update every 1 steps, delay 10 steps, check yes
  max neighbors/atom: 2000, page size: 100000
  master list distance cutoff = 11.2
  ghost atom cutoff = 11.2
  binsize = 5.6, bins = 4 4 4
  1 neighbor lists, perpetual/occasional/extra = 1 0 0
  (1) pair eam/fs, perpetual
      attributes: half, newton on
      pair build: half/bin/atomonly/newton
      stencil: half/bin/3d/newton
      bin: standard
Per MPI rank memory allocation (min/avg/max) = 2.962 | 3 | 3.337 Mbytes
Step Temp PotEng Press Lx Ly Lz Xy Xz Yz Pxx Pyy Pzz Pxy Pxz Pyz 
       0          500   -257.19306   -1137.0247       21.977       21.977       21.977            0            0            0   -1654.8715   -1108.7106   -647.49191    91.506737    490.28842    74.097184 
     500    471.38791   -252.03598    352.87881       21.977       21.977       21.977            0            0            0    656.76657   -22.291876    424.16175    421.40849    382.83323   -721.50707 
    1000    520.19701   -252.31246    463.12051       21.977       21.977       21.977            0            0            0    1171.8958    211.86736    5.5983355    759.16748   -175.66081   -306.24659 
    1500    507.55529   -251.60242    500.51317       21.977       21.977       21.977            0            0            0    224.06757    365.51322    911.95874   -489.24107    134.38102      31.7144 
    2000    479.70009   -252.04461    504.74966       21.977       21.977       21.977            0            0            0    476.87377    211.14417    826.23104    117.01938    641.45447    -52.82869 
    2500    553.71913   -251.02001    945.65389       21.977       21.977       21.977            0            0            0    693.15696    1254.1953    889.60941    459.07099   -859.12412    494.72177 
    3000     485.9215   -251.67158    471.30429       21.977       21.977       21.977            0            0            0    638.89031   -97.476084    872.49864    171.40443   -231.76524   -264.07578 
    3500    486.27133   -252.79153   -37.264605       21.977       21.977       21.977            0            0            0    748.97765   -144.84013   -715.93134    107.12674    -798.3861    707.77178 
    4000    488.59106   -251.93106     480.5879       21.977       21.977       21.977            0            0            0    1010.2517    205.93544    225.57653   -277.03242   -499.87245    121.38386 
    4500    468.27941   -251.84868    457.76286       21.977       21.977       21.977            0            0            0    522.84824     378.6351    471.80524   -249.24457   -22.645901    643.02127 
    5000    470.83098   -250.69913    810.70257       21.977       21.977       21.977            0            0            0    925.59831    763.83349    742.67592    753.75055    173.57621    11.029228 
    5500    521.00133   -250.55348    1208.5177       21.977       21.977       21.977            0            0            0    366.78843    1184.7785    2073.9862   -125.26363    401.74996     9.377164 
    6000    444.58127   -250.80816    716.81445       21.977       21.977       21.977            0            0            0    1019.0211    1080.5021    50.920058   -242.63796    530.18266   -188.41224 
    6500    520.19345    -249.5194     1364.339       21.977       21.977       21.977            0            0            0    1040.9771    1475.2728    1576.7671   -745.47787    356.58823    218.53034 
    7000    467.95686    -250.9433    506.41952       21.977       21.977       21.977            0            0            0    155.97809    1078.0249    285.25557   -69.422786    791.91642   -912.80766 
    7500    502.69959   -251.42451     612.3464       21.977       21.977       21.977            0            0            0    240.98471    893.78278    702.27172    496.89425    497.95611   -404.26895 
    8000     522.7176   -251.28065     572.0909       21.977       21.977       21.977            0            0            0    880.55306    1084.4547   -248.73503    132.24194     434.4045    140.47674 
    8500    511.44237   -252.02186    559.12943       21.977       21.977       21.977            0            0            0    448.49515    735.97742    492.91572   -257.29242   -349.26223   -244.70481 
    9000    494.58311   -252.17707    325.22745       21.977       21.977       21.977            0            0            0    406.67885    33.171698    535.83182    68.817239    63.855262   -339.15107 
    9500    494.86727    -251.7517    545.82357       21.977       21.977       21.977            0            0            0    742.73795    619.12865     275.6041    7.0889833    350.87775   -78.881152 
   10000    498.49289   -250.53356    999.08704       21.977       21.977       21.977            0            0            0    1335.1906    1482.3076      179.763    164.78029    372.66857   -701.26981 
   10500    468.82072   -252.15582    313.32257       21.977       21.977       21.977            0            0            0    70.788039    414.69712    454.48255   -236.90068   -216.44368    119.91995 
   11000    529.04698   -252.87529    378.77667       21.977       21.977       21.977            0            0            0   -710.29601    1026.5098    820.11617    71.037973    526.62508    152.52144 
   11500    500.98086   -251.84356    592.21573       21.977       21.977       21.977            0            0            0    1176.3852    333.58134    266.68068   -266.19567    199.34169    622.02134 
   12000    512.05639   -251.74022    766.84177       21.977       21.977       21.977            0            0            0    1509.5694    678.79255    112.16337   -168.23455   -101.04911   -625.33257 
   12500    512.43045   -251.57384    558.29487       21.977       21.977       21.977            0            0            0   -39.142957    780.32423    933.70335   -151.01792    734.25632     55.55395 
   13000    511.75856   -251.60538    538.62999       21.977       21.977       21.977            0            0            0    1541.4457   -70.549266    144.99356    328.77129   -821.67403    58.201291 
   13500     529.5775   -249.07737    1564.6866       21.977       21.977       21.977            0            0            0    2097.4174    1785.3339    811.30859    710.95793   -333.79753    178.09481 
   14000    472.80371   -250.31425    754.51494       21.977       21.977       21.977            0            0            0     986.3967     924.3825    352.76562    372.82007    961.60558   -415.43318 
   14500    493.30436   -250.26638    1117.1815       21.977       21.977       21.977            0            0            0    682.53508    1365.2429    1303.7665    425.22703    54.207118    237.93415 
   15000    478.27902   -250.16271    1050.5013       21.977       21.977       21.977            0            0            0    1029.1944    936.96039    1185.3491    147.84508   -441.00828   0.27520192 
   15500    458.20005   -251.45072    536.32893       21.977       21.977       21.977            0            0            0     966.6828    939.69828   -297.39428    463.07696    260.70239   -29.631118 
   16000     490.5265     -251.687    611.73191       21.977       21.977       21.977            0            0            0    320.59046     608.1161    906.48916   -221.41509   -420.54429   -588.26758 
   16500    451.15382   -252.44298    326.22629       21.977       21.977       21.977            0            0            0    578.78273    329.72365    70.172474   -684.00679     63.90022   -57.792216 
   17000    556.49759   -249.42884    1437.3929       21.977       21.977       21.977            0            0            0    1602.4935    1755.1126    954.57263   -453.21842   -469.86817   -168.16192 
   17500    496.12264   -250.52393    817.05436       21.977       21.977       21.977            0            0            0   -180.22501    1026.2662    1605.1219   -385.65643   -190.25986   -592.39033 
   18000    500.03421   -251.16566    734.86384       21.977       21.977       21.977            0            0            0    1174.6678    134.42461     895.4991    168.96443   -82.095586   -612.25895 
   18500    483.34822   -251.86288    577.61735       21.977       21.977       21.977            0            0            0    -319.4773    545.89381    1506.4355   -130.97468   -331.75363   -593.98487 
   19000    479.91084   -252.23127    341.10495       21.977       21.977       21.977            0            0            0    134.98698    869.28016    19.047687    122.60311   -133.25511   -523.79046 
   19500    488.61394   -251.04488     948.0329       21.977       21.977       21.977            0            0            0    748.70938    1749.8244    345.56494    82.585756    465.75311    145.44148 
   20000    515.99045   -250.62115    900.90476       21.977       21.977       21.977            0            0            0    212.59219    1208.0307    1282.0914   -81.371067   -181.00634    162.96853 
   20500    510.33577    -250.8238    872.97392       21.977       21.977       21.977            0            0            0    1065.6523    276.35107    1276.9184   -61.789363    236.98866    215.93963 
   21000    512.87534     -251.015    834.70683       21.977       21.977       21.977            0            0            0    357.60266    2011.9146    134.60321    16.116901    -576.6809    134.87159 
   21500     531.6299   -251.84191    607.78345       21.977       21.977       21.977            0            0            0      184.249    1258.9081    380.19324   -107.87238   -185.86024   -610.80851 
   22000    493.32273   -250.83416    1048.2962       21.977       21.977       21.977            0            0            0    1430.6876    1141.3915     572.8094   -124.61833    -305.3573   -672.88828 
   22500    526.09704    -251.8477    678.93624       21.977       21.977       21.977            0            0            0    1602.8577    264.20528    169.74575    234.62852   -980.88206   -429.55336 
   23000    467.32127    -250.8719    773.82642       21.977       21.977       21.977            0            0            0   -333.69801    1293.0307    1362.1466   -44.586974    30.628238   -97.892715 
   23500    498.56937   -251.39246    674.86389       21.977       21.977       21.977            0            0            0    906.95696    795.14865    322.48606    615.63915   -422.14487    263.93343 
   24000    478.82423   -250.73409    808.87692       21.977       21.977       21.977            0            0            0    1427.3157    871.37867    127.93638     1007.383    493.34938    129.41996 
   24500    494.33745   -249.88199    1155.5487       21.977       21.977       21.977            0            0            0    334.33099    2563.0818    569.23314   -747.81698    454.08353   -697.81394 
   25000    532.61537   -250.89997    1018.3038       21.977       21.977       21.977            0            0            0    1339.5243    954.38926    760.99782   -1197.0202   -313.82457   -317.01591 
   25500    522.30772   -250.75092    900.23079       21.977       21.977       21.977            0            0            0    702.51803    1498.5396    499.63476   -27.932891    133.02077    82.702781 
   26000    496.23459    -251.3366     871.4621       21.977       21.977       21.977            0            0            0   -566.28735    1927.1779    1253.4958    160.46563   -1406.9127   -647.78476 
   26500    456.61461   -251.35869    310.45083       21.977       21.977       21.977            0            0            0    491.10313    130.61107    309.63828    1472.5728   -416.41588    282.22992 
   27000     475.9563   -251.01637    767.91864       21.977       21.977       21.977            0            0            0    830.32958    528.39029    945.03606   -113.70149    100.09826   -151.73632 
   27500    487.40774   -251.62459    580.70686       21.977       21.977       21.977            0            0            0   -30.936683    1275.9202    497.13704    475.40479    340.01244    364.42309 
   28000    502.59435   -250.50104    857.89255       21.977       21.977       21.977            0            0            0    774.17441    1960.4705   -160.96729   -28.956678    81.628677   -274.68682 
   28500    486.26006   -250.32342    877.10891       21.977       21.977       21.977            0            0            0    1624.7766    778.47034    228.07977   -215.16266   -272.99677   -291.23519 
   29000     515.8471    -251.9015    398.28457       21.977       21.977       21.977            0            0            0    1032.5264   -530.97658    693.30384    532.72391   -118.11637   -843.21075 
   29500    507.54412   -251.48776    587.76795       21.977       21.977       21.977            0            0            0    923.96453    582.88248    256.45682   -33.504797   -599.20546    279.34569 
   30000    445.00786   -252.44068    329.61367       21.977       21.977       21.977            0            0            0    345.71408   -236.49844    879.62538   -223.76649    365.59831   -165.74002 
   30500    462.75252   -250.75083    785.94879       21.977       21.977       21.977            0            0            0    1050.2023    979.94456    327.69952   -385.30139    120.79034   -279.67939 
   31000    484.51623   -250.77871     820.7824       21.977       21.977       21.977            0            0            0    1517.3056      16.4722     928.5694   -26.733468   -305.75344    205.22425 
   31500    484.06907   -252.22997    267.68607       21.977       21.977       21.977            0            0            0    471.43456   -18.611917    350.23555   -20.185741   -500.83601    197.46112 
   32000    535.17702   -252.09406    523.71833       21.977       21.977       21.977            0            0            0    925.33304     495.4438    150.37815    407.91714    86.533701    6.7071552 
   32500    526.27965   -252.25478    523.76671       21.977       21.977       21.977            0            0            0    1487.4436    364.64668   -280.79015     142.4178    64.732299    396.27069 
   33000    518.80482    -250.3905     1182.637       21.977       21.977       21.977            0            0            0   -549.55028     2154.514    1942.9472    252.13053    -173.7986    680.28395 
   33500    489.33658   -251.25049    507.41405       21.977       21.977       21.977            0            0            0    938.84794   -359.39302    942.78721    351.49713    93.911559   -3.1109468 
   34000    514.00662    -251.8769    677.72373       21.977       21.977       21.977            0            0            0    272.62876    1463.6022    296.94022    145.29552   -926.41404    428.74261 
   34500     500.1234   -251.13312    748.17119       21.977       21.977       21.977            0            0            0    398.65277    352.42107    1493.4397   -295.23182    801.90603    500.21771 
   35000     463.5239   -251.63774    377.72515       21.977       21.977       21.977            0            0            0   -397.48519    80.599085    1450.0615   -486.99108    67.113312   -680.30542 
   35500    489.55126   -251.74863    685.35496       21.977       21.977       21.977            0            0            0   -265.88986    2122.2277    199.72705   -218.17707   -142.12397   -695.74467 
   36000    527.46876   -253.22722    301.90346       21.977       21.977       21.977            0            0            0    16.220555    1262.6694   -373.17952    93.083894   -116.47883     424.0114 
   36500    502.20729   -250.64594    957.03149       21.977       21.977       21.977            0            0            0    198.48818    1405.2238    1267.3824    213.73908     111.8261    294.64401 
   37000    518.60387   -251.90598    550.02058       21.977       21.977       21.977            0            0            0   -125.22863    657.45347    1117.8369   -111.01577    423.72909    822.67971 
   37500    503.94787   -251.10723    900.84088       21.977       21.977       21.977            0            0            0    866.83985    840.96711    994.71569    919.16588    327.37535    -262.8877 
   38000    529.90263   -251.76075    827.50803       21.977       21.977       21.977            0            0            0    774.32534    626.50442    1081.6943    78.105555   -910.50686   -212.24167 
   38500    523.20041   -249.84857     1215.512       21.977       21.977       21.977            0            0            0    1382.6527     803.8338    1460.0495    1134.3217    678.08864    844.69865 
   39000    500.63915   -252.54743    378.20772       21.977       21.977       21.977            0            0            0    693.95514   -75.050586     515.7186    198.72402   -347.85073   -337.35762 
   39500    537.25903    -251.3563    928.87972       21.977       21.977       21.977            0            0            0     804.7737    981.61497    1000.2505   -150.17172   -462.41525   -42.056159 
   40000    509.03563   -252.64848    445.90847       21.977       21.977       21.977            0            0            0    842.20533    342.46083    153.05923   -528.20766   -515.48973   -428.00982 
   40500    490.30501   -250.33531    940.38463       21.977       21.977       21.977            0            0            0    444.13829    847.23269    1529.7829   -119.08097   -642.79277    610.39635 
   41000    479.33362   -250.68744    775.83819       21.977       21.977       21.977            0            0            0    1876.2702    161.49151    289.75284    994.63756    371.31391    578.26496 
   41500    467.13792   -252.22796    205.38303       21.977       21.977       21.977            0            0            0   -88.632978    126.76712    578.01495   -74.423827   -332.03007   -295.75638 
   42000    525.75501    -252.4938    765.67439       21.977       21.977       21.977            0            0            0    1117.9585    541.65383    637.41081    143.96696    63.671037   -441.45604 
   42500    506.11892   -251.42578    524.88677       21.977       21.977       21.977            0            0            0    919.37269    973.22343   -317.93582     -155.829   -130.17879     293.1588 
   43000    504.01824   -251.71758    551.66419       21.977       21.977       21.977            0            0            0    409.13589    1690.5587     -444.702    514.46618    -220.9436    189.00797 
   43500    540.14734    -251.2269     1021.745       21.977       21.977       21.977            0            0            0    1263.5711     418.7046    1382.9593    328.68303   -338.00314    558.96958 
   44000    495.59858   -249.28025    1501.8631       21.977       21.977       21.977            0            0            0    2120.1347    1281.3886     1104.066    -676.7304   -310.61955    1184.9161 
   44500    472.19845   -252.43803    72.011746       21.977       21.977       21.977            0            0            0     911.4032   -1498.0716    802.70363    20.788242   -607.04205   -26.916873 
   45000     483.0608   -251.45708    602.08254       21.977       21.977       21.977            0            0            0    643.08758    366.38856     796.7715    301.82468   -681.30629    186.05012 
   45500    499.53664   -251.04035    1093.7965       21.977       21.977       21.977            0            0            0     933.7492     2181.212    166.42824    173.00555   -162.67697    491.76809 
   46000     549.0639   -251.76025    876.06672       21.977       21.977       21.977            0            0            0    1073.5346    652.26877    902.39678     59.22715    392.69033    207.17638 
   46500    508.68696   -252.28536    368.29315       21.977       21.977       21.977            0            0            0   -255.36123     58.94767     1301.293    -66.23319    407.12721   -958.48121 
   47000    501.09985   -251.35367    715.09965       21.977       21.977       21.977            0            0            0     819.9257     757.0661    568.30714    864.36598    100.40985    345.22078 
   47500    488.33103   -251.19994    757.81266       21.977       21.977       21.977            0            0            0    722.04461    1133.6106    417.78273   -212.18112    589.05018   -314.06811 
   48000    460.78414   -250.56222    752.45983       21.977       21.977       21.977            0            0            0   -185.06811    1353.4778    1088.9698   -151.07697    121.64434    147.89506 
   48500    517.23821   -250.96144    1053.6998       21.977       21.977       21.977            0            0            0    236.13095    2243.9926    680.97572   -428.74482   -328.42652   -978.49987 
   49000    528.04617    -250.9197    769.42263       21.977       21.977       21.977            0            0            0    858.24684    936.31716    513.70389   -711.63725   -202.85081    152.91331 
   49500    461.23538   -252.78042   -31.429391       21.977       21.977       21.977            0            0            0   -23.707295   -386.72051    316.13963   -653.52752   -381.43043    190.63329 
   50000    504.76849   -251.95583    541.82773       21.977       21.977       21.977            0            0            0    814.47094    791.46107    19.551166   -607.96704     452.7034   -369.96579 
   50500    502.49469   -252.46657    306.22521       21.977       21.977       21.977            0            0            0    445.23696    527.97917   -54.540488    441.56632    82.916327   -479.20114 
   51000    538.15199   -251.31087    1172.7314       21.977       21.977       21.977            0            0            0    1653.1398    949.49194    915.56249     258.7868   -79.583509   -736.12398 
   51500    506.07452   -253.27321   -60.429938       21.977       21.977       21.977            0            0            0     38.31096    330.59655   -550.19732   -481.64283    8.7262585   -154.63775 
   52000    547.61781   -250.60431    1081.6909       21.977       21.977       21.977            0            0            0    716.94373    1634.0949    894.03401    24.688435   -41.719832    8.6584667 
   52500    465.31628   -251.66441    393.90561       21.977       21.977       21.977            0            0            0    811.30975    533.47592   -163.06882   -61.759125   -154.87158     429.3848 
   53000    527.27922   -251.71091    719.67587       21.977       21.977       21.977            0            0            0    1007.8564    1383.9235   -232.75231   -349.01902   -269.85578    68.220516 
   53500    495.68724   -251.83164    531.07302       21.977       21.977       21.977            0            0            0    310.55645    362.30395    920.35865    866.99391    82.293986    481.12434 
   54000    466.80322   -251.98135     322.1898       21.977       21.977       21.977            0            0            0   -144.30991    877.09242    233.78691    376.37605   -228.58823    159.20132 
   54500    475.18111   -250.64063    617.74324       21.977       21.977       21.977            0            0            0    1101.8885    353.57471    397.76654    197.96295    232.37674   -624.99633 
   55000     521.8315   -250.69783    975.15385       21.977       21.977       21.977            0            0            0    903.27945    1226.8591    795.32298   -13.288758   -613.38886     502.6749 
   55500     560.7417   -251.13549    942.11671       21.977       21.977       21.977            0            0            0     830.3794     1091.236    904.73476   -245.90197   -144.73494    162.11494 
   56000    514.02357   -251.17301    1077.7219       21.977       21.977       21.977            0            0            0    576.65517    1533.3066     1123.204    -596.9613    32.946554   -197.90974 
   56500    525.86295   -250.71005    1165.7716       21.977       21.977       21.977            0            0            0    931.67607    636.08169    1929.5569    -29.95887    313.01562    441.64697 
   57000    467.81993   -251.36433    527.66669       21.977       21.977       21.977            0            0            0    951.35215   -339.28914    970.93707    988.07648    28.929775   -671.80633 
   57500    525.82882   -252.31817    453.00535       21.977       21.977       21.977            0            0            0     488.8916    946.53026   -76.405807   -453.45113   -166.04835   -72.831363 
   58000     523.0232   -250.96021    840.25047       21.977       21.977       21.977            0            0            0    1353.5032    1250.1253   -82.877057    420.40501     177.8847   -457.80817 
   58500    512.76932   -250.86246    1006.5824       21.977       21.977       21.977            0            0            0    415.92036    1230.1764    1373.6504   -372.74242    340.01496    443.20967 
   59000    503.85601   -251.69985    519.70487       21.977       21.977       21.977            0            0            0    1055.6855   -15.854623    519.28374    74.827782   -161.79584    373.43831 
   59500    527.44926   -252.35153    541.30433       21.977       21.977       21.977            0            0            0    949.91201    456.77961    217.22135   -111.43112    390.61114   -363.77538 
   60000    505.54953   -250.77298    957.90116       21.977       21.977       21.977            0            0            0    1557.1335    670.45884    646.11112   -556.59003     635.0236   -20.320042 
   60500    510.23146   -251.25742    939.61645       21.977       21.977       21.977            0            0            0    545.77481     847.4641    1425.6104   -449.63466   -897.58416    493.46629 
   61000    479.14762     -250.758    834.12235       21.977       21.977       21.977            0            0            0    946.75279    854.68444    700.92981    34.771413   -37.887445   -147.00985 
   61500    445.73421   -252.80418   -42.755099       21.977       21.977       21.977            0            0            0    912.11778   -100.99448   -939.38859   -325.65314    599.25253    397.20479 
   62000    545.87586   -251.77107    627.61276       21.977       21.977       21.977            0            0            0    1286.0553    1113.6515   -516.86853      675.289   -455.78361    128.68937 
   62500    527.60372   -250.40945    1075.2911       21.977       21.977       21.977            0            0            0    1612.9349    562.76775    1050.1706    274.94042   -522.32719    319.50032 
   63000    533.85095   -251.90945    482.64168       21.977       21.977       21.977            0            0            0    221.54327    242.62324    983.75852   -521.88821   -263.14927    344.70517 
   63500    507.53178   -250.86451    894.95627       21.977       21.977       21.977            0            0            0    1514.7144    463.17445    706.97996   -511.61086   -12.062899   -801.23585 
   64000    503.71186   -252.81727    56.517673       21.977       21.977       21.977            0            0            0    -545.5957    -162.1294    877.27812    121.65552   -493.55213   -5.2447683 
   64500    497.12417   -251.34427    799.70251       21.977       21.977       21.977            0            0            0    1231.9463     1183.986   -16.824739  -0.42736211    721.58925     968.4088 
   65000    510.80923   -250.85827    1072.3985       21.977       21.977       21.977            0            0            0     1484.578    649.39968    1083.2177   -298.06187   -770.50916   -526.23737 
   65500    510.96536   -250.65268    805.52251       21.977       21.977       21.977            0            0            0    1279.2605    386.26927    751.03779    252.59758    545.29507   -523.55397 
   66000    478.16258   -250.82816    832.30753       21.977       21.977       21.977            0            0            0    939.83927    570.55061    986.53272    376.55495    96.116671   -353.36017 
   66500    467.01822   -251.11962    830.85613       21.977       21.977       21.977            0            0            0    895.54283    1021.9559    575.06966    133.07607   -58.422032   -39.597529 
   67000    451.47928   -251.08999    553.15886       21.977       21.977       21.977            0            0            0    1274.0878    96.409077    288.97968   -349.84006     609.8391   -60.987091 
   67500     508.8591   -252.38144    461.31049       21.977       21.977       21.977            0            0            0    1032.7746    260.95119    90.205653    441.25999    72.279683    1201.9089 
   68000    519.48184   -250.49873    928.37092       21.977       21.977       21.977            0            0            0   -536.85248    1359.2988    1962.6665   -507.68266    134.71193    438.93107 
   68500    501.94161   -251.35425     603.6659       21.977       21.977       21.977            0            0            0    1413.0606    161.81921    236.11791   -98.229856   -63.785787   -193.52418 
   69000    493.40754    -251.5334     818.1886       21.977       21.977       21.977            0            0            0    1325.5325    634.90575    494.12752   -191.17055   -830.14076   -497.54934 
   69500    498.89575   -252.14009    471.34802       21.977       21.977       21.977            0            0            0   -224.25899    948.90989    689.39316   -314.14545   -58.663685   -788.16881 
   70000     496.2797   -250.85673    776.43543       21.977       21.977       21.977            0            0            0    564.01602    729.89189    1035.3984    111.12508    266.48144   -114.08989 
   70500    487.09274    -251.9571    399.28818       21.977       21.977       21.977            0            0            0   -102.18702    795.12903    504.92254    501.01478    134.57623   -153.28255 
   71000    485.26442   -251.39729    507.65005       21.977       21.977       21.977            0            0            0    417.59784      666.564    438.78832    -698.8407    176.38445   -174.62213 
   71500    504.09096   -251.44195    473.95535       21.977       21.977       21.977            0            0            0    800.42817    -341.2084    962.64627    549.98952    54.066383   -68.401179 
   72000    500.06907   -251.86813    374.74809       21.977       21.977       21.977            0            0            0    688.80538    266.99558     168.4433    449.96415    148.91165    521.98902 
   72500    504.29714   -251.38181    585.69988       21.977       21.977       21.977            0            0            0     780.5105    1139.6204   -163.03124    243.96319    333.73811   -153.15865 
   73000    512.65981   -251.59723    711.96529       21.977       21.977       21.977            0            0            0    184.69908    1191.5214    759.67537     210.5726    197.25478   -23.855256 
   73500    519.69984   -251.03179    1032.5547       21.977       21.977       21.977            0            0            0     1279.966    975.33202    842.36626   -805.64499    331.25767    265.95421 
   74000    510.37723   -250.85018    997.49097       21.977       21.977       21.977            0            0            0    1020.1561    2022.7324   -50.415634    418.82503    363.19887   -122.48388 
   74500    499.88398   -250.96494    670.35689       21.977       21.977       21.977            0            0            0    918.28905    687.87979    404.90184   -362.16341    250.94981    458.68115 
   75000    508.31803   -251.50109    569.14241       21.977       21.977       21.977            0            0            0    731.65574   -812.50308    1788.2746     67.84239   -143.09747   -8.5315844 
   75500    445.65609   -251.42885    652.02254       21.977       21.977       21.977            0            0            0    29.136752    1459.5434    467.38742   -668.68636   -136.56285    554.24607 
   76000    488.26555   -251.91996    491.23996       21.977       21.977       21.977            0            0            0    368.04614    110.94988    994.72385   -399.63251   -86.093381   -82.967305 
   76500     486.6306   -251.71959    785.63732       21.977       21.977       21.977            0            0            0    1540.6637    597.37523    218.87301    -146.0321    74.026412    334.51009 
   77000    493.36328   -251.08363    678.66568       21.977       21.977       21.977            0            0            0     1101.406    333.62157    600.96946    372.71102    188.28467   -212.87144 
   77500    476.21137   -252.76903    364.73215       21.977       21.977       21.977            0            0            0    1368.8126    539.56546   -814.18163    600.46353   -406.56829    15.659859 
   78000    584.64871   -251.70921    932.10623       21.977       21.977       21.977            0            0            0    953.50573    547.32305    1295.4899   -967.26667   -120.44501   -561.90223 
   78500    504.89182   -252.09275    434.09212       21.977       21.977       21.977            0            0            0    506.75514    948.50035   -152.97912    200.12616   -411.12515    431.46913 
   79000    507.68813   -252.25393    472.09713       21.977       21.977       21.977            0            0            0    725.59645    782.54994   -91.855004    601.43074   -546.58959   -174.59511 
   79500    535.21281   -251.67148    800.98536       21.977       21.977       21.977            0            0            0    144.02301    934.47823    1324.4548   -539.63134    34.747055   -512.27288 
   80000    489.52126   -250.58874     816.5951       21.977       21.977       21.977            0            0            0    510.42466    694.37989    1244.9808   -879.70816    21.125907    1068.8278 
   80500    515.12158   -251.09934    719.66072       21.977       21.977       21.977            0            0            0    651.37745    574.75798    932.84673    738.46004   -180.11406   -84.071141 
   81000    533.78803   -251.53719    733.92559       21.977       21.977       21.977            0            0            0    1284.5061   -5.6810325     922.9517   -362.88718    423.28334   -90.157535 
   81500    497.27984   -251.47215    504.51479       21.977       21.977       21.977            0            0            0    350.81613    1317.6183   -154.89004    54.090661    321.22028    354.13277 
   82000    519.75385   -251.36088    803.88189       21.977       21.977       21.977            0            0            0    989.97737    1038.6806    382.98769   -116.96097    -589.0417    366.45774 
   82500    447.56958   -250.67194    752.89075       21.977       21.977       21.977            0            0            0    421.49516    1835.9297    1.2473933    493.42145    68.950281   -233.93139 
   83000    549.48346   -251.58654    807.62595       21.977       21.977       21.977            0            0            0    812.10576    912.61513    698.15695    157.83142    472.43722    465.98784 
   83500    485.42303   -252.20662    614.51324       21.977       21.977       21.977            0            0            0    969.21082    589.15269    285.17623   -59.123876     94.38093     441.7023 
   84000    443.21606   -251.48941    575.75937       21.977       21.977       21.977            0            0            0    691.35308    1008.0769    27.848142    173.85997    194.82208   -203.13518 
   84500      530.115   -251.35462    846.98564       21.977       21.977       21.977            0            0            0    1145.5244     1159.153    236.27953   -917.43625    32.873383    617.49385 
   85000    537.42936    -251.5236    674.06868       21.977       21.977       21.977            0            0            0    1171.5149    95.394908    755.29621    485.54875   -515.99383   -518.08565 
   85500    552.27648   -250.81043    839.06081       21.977       21.977       21.977            0            0            0    1204.0905    956.46149    356.63041    1097.3013    396.43898   -584.81747 
   86000    457.60738    -250.9722    659.90428       21.977       21.977       21.977            0            0            0    598.76676    502.33612    878.60996    311.00904   -362.06023    489.07338 
   86500    492.83045    -252.3954    332.83068       21.977       21.977       21.977            0            0            0    148.33704   -77.039833    927.19483    177.57102    382.55964    -151.5199 
   87000    555.67518   -250.85565    891.74042       21.977       21.977       21.977            0            0            0    312.43998    1381.5381    981.24315    231.67203   -374.42296    38.139481 
   87500    533.44866   -252.10897    457.61143       21.977       21.977       21.977            0            0            0    198.04396     517.7733    657.01703   -139.17928   -211.59739   -157.94166 
   88000    535.64769   -251.37328     992.5356       21.977       21.977       21.977            0            0            0    1082.7114   -189.21826    2084.1137    645.28892    402.40677    281.49512 
   88500    454.48393   -251.73731    611.99949       21.977       21.977       21.977            0            0            0    534.23066    742.77551    558.99229   -95.077151   -248.46199   -532.35216 
   89000    511.17932   -252.13366    503.03791       21.977       21.977       21.977            0            0            0    1072.9259      291.714    144.47383   -367.86243    276.74929    -76.82274 
   89500     501.1398   -252.51686    476.77229       21.977       21.977       21.977            0            0            0    1217.0371    171.03694    42.242877    750.80323   -366.66338   -520.01045 
   90000    518.33929   -251.17187    865.84653       21.977       21.977       21.977            0            0            0   -8.2924674     2711.435   -105.60298   -482.71471    294.39794    284.76054 
   90500     540.1818   -251.25415    625.21538       21.977       21.977       21.977            0            0            0    975.34158    337.43733    562.86723   -559.70286    1204.7924     360.2951 
   91000    498.35574   -251.56817     750.1261       21.977       21.977       21.977            0            0            0    301.39555    1034.8202     914.1626    162.54028    -122.2918     29.97373 
   91500    469.80547   -253.43984    12.329074       21.977       21.977       21.977            0            0            0    514.29894   -1047.9779    570.66615    972.00824    616.49719   -260.18938 
   92000     483.8835   -251.20302    594.69083       21.977       21.977       21.977            0            0            0    196.19585    1175.9698    411.90685    378.88309    -186.0506    416.72505 
   92500    508.29349   -249.67136    1267.0145       21.977       21.977       21.977            0            0            0    1322.0532    1434.8824    1044.1078    83.246536    208.09766    170.10321 
   93000    506.27639   -251.09291    569.95602       21.977       21.977       21.977            0            0            0    370.75061    839.76512    499.35233    758.97368   -197.43455    291.17687 
   93500    485.84209   -251.64715    535.49894       21.977       21.977       21.977            0            0            0    212.61916    463.01371    930.86394   -137.78317   -27.585762    639.20228 
   94000    510.46018   -251.55906    591.85711       21.977       21.977       21.977            0            0            0   -214.40279    709.58353    1280.3906   -349.97065   -605.88833   -58.479701 
   94500    440.03929    -251.2481    748.64623       21.977       21.977       21.977            0            0            0    453.16789    298.31648    1494.4543   -285.78835   -165.21471    649.28981 
   95000    488.42727   -250.01035     1204.665       21.977       21.977       21.977            0            0            0    1410.9603    1192.6197    1010.4151    36.569131    3.2139618    412.98107 
   95500    519.76207   -250.90741    986.96705       21.977       21.977       21.977            0            0            0    1030.2701    976.28928    954.34177    312.07216   -445.29658    628.76357 
   96000    546.45825   -250.44582    1206.9882       21.977       21.977       21.977            0            0            0    780.13945    1004.4048    1836.4203    -365.3896   -141.40184   -153.02753 
   96500     498.3448   -252.40248    309.36259       21.977       21.977       21.977            0            0            0    463.71757    443.09277    21.277436   -214.87762    104.97569   -290.75344 
   97000    513.21386   -251.53589    555.61076       21.977       21.977       21.977            0            0            0    743.26663    618.06298    305.50268    65.382538     148.4753   -249.94887 
   97500    487.32147   -251.60564    590.09844       21.977       21.977       21.977            0            0            0    474.57209    887.91522      407.808    13.152749    73.780886    -1178.347 
   98000    491.63056    -250.4765    1047.6263       21.977       21.977       21.977            0            0            0    1632.6576    1384.8286    125.39256    443.11572   -3.0805384   -423.98914 
   98500    505.29882   -251.78176    464.97478       21.977       21.977       21.977            0            0            0    178.95751    844.73376    371.23308    194.69291    459.08944    113.85994 
   99000     466.3339   -251.30318    575.15998       21.977       21.977       21.977            0            0            0    1110.1153   -306.01284    921.37749    556.11432   -289.22094   -99.154993 
   99500    507.46722   -251.84201     590.9014       21.977       21.977       21.977            0            0            0     444.4768    804.81904    523.40836   -243.86066    -21.68134   -161.17674 
  100000    509.80997   -250.90516    690.42619       21.977       21.977       21.977            0            0            0    781.17335    701.22948    588.87573   -68.199509   -107.70948   -19.061705 
  100500     507.3681   -251.53601    606.09559       21.977       21.977       21.977            0            0            0    477.71621    248.62084    1091.9497    566.67727   -218.74113   -752.79424 
  101000    470.41382   -251.97342    351.94508       21.977       21.977       21.977            0            0            0    429.50705    756.86952   -130.54132    851.16812    213.32154   -72.679992 
  101500    526.22091   -251.83755    656.48152       21.977       21.977       21.977            0            0            0    -28.23937    892.59305    1105.0909   -80.149781   -581.76511    96.032682 
  102000    519.32794    -252.2398    459.32245       21.977       21.977       21.977            0            0            0    243.11448    551.79535    583.05753   -642.38343   -253.10039     1175.585 
  102500    505.04369   -249.83382     1057.133       21.977       21.977       21.977            0            0            0     279.6431    1515.6945    1376.0613     122.8177   -430.64206   -568.01826 
  103000    519.03953   -250.88037    844.14965       21.977       21.977       21.977            0            0            0    668.97577   -423.57099    2287.0442   -223.61632   -109.33996    731.55294 
  103500    486.81713   -251.75707    434.40731       21.977       21.977       21.977            0            0            0    720.12339    848.77106   -265.67252    143.69114    273.24259    340.99301 
  104000    470.11206   -250.06098    1104.1065       21.977       21.977       21.977            0            0            0    1147.5711    1952.1828    212.56563    1069.9591   -532.08776   -189.80569 
  104500     464.6815      -250.07    943.59323       21.977       21.977       21.977            0            0            0    1415.9712    248.69786    1166.1106    376.18588   -167.96099   -197.46539 
  105000    460.80763   -250.60393    727.55584       21.977       21.977       21.977            0            0            0    1032.6658    865.84631    284.15542    294.26071   -190.56654   -725.86334 
  105500    479.67992   -250.69374    888.09481       21.977       21.977       21.977            0            0            0    1631.4727    997.80858    35.003197   -187.48429    824.11142    62.497111 
  106000    511.20762   -251.08065    892.68596       21.977       21.977       21.977            0            0            0    754.91443    1381.1716    541.97187   -810.14976    215.56733    267.67675 
  106500    489.47032   -251.52842     436.9336       21.977       21.977       21.977            0            0            0    247.27548    532.30096    531.22435    6.0814132    281.09847    185.40832 
  107000    499.07646   -251.22328    650.95505       21.977       21.977       21.977            0            0            0    725.22901    435.44232    792.19383    308.46533    78.396781    1102.3516 
  107500    465.88469    -251.6284    335.78373       21.977       21.977       21.977            0            0            0    1015.0134    442.36419   -450.02635    294.76795    689.02529     709.1423 
  108000    578.19598    -251.4179    967.14143       21.977       21.977       21.977            0            0            0     978.9655     1396.882    525.57675    837.04539    488.43649   -551.55643 
  108500    480.16293   -251.85608    501.46589       21.977       21.977       21.977            0            0            0   -79.512444    1257.7056    326.20449   -492.40492    221.71182    522.09466 
  109000    495.32631   -250.98919    802.72255       21.977       21.977       21.977            0            0            0    842.26538    1239.0805    326.82176   -816.58856   -192.09461   -89.864764 
  109500    488.77495   -252.20904    444.29073       21.977       21.977       21.977            0            0            0   -492.71782    405.94626    1419.6438   -594.83407   -131.69149    656.02867 
  110000    493.65021   -252.69732    569.33203       21.977       21.977       21.977            0            0            0   -511.60706    624.89163    1594.7115    303.00067    -48.96561    174.29486 
  110500    475.80941   -250.24138     845.5381       21.977       21.977       21.977            0            0            0    827.15799    825.33827    884.11806    611.44227     49.64953    172.07357 
  111000    499.94913   -251.12463    574.84201       21.977       21.977       21.977            0            0            0    525.62444   -212.37978    1411.2814    436.70912    278.83518    160.86095 
  111500    496.29776   -250.80142     812.6872       21.977       21.977       21.977            0            0            0    311.61741    862.06505    1264.3791    443.29202    52.007751   -124.72866 
  112000    499.81043   -251.78397    341.79069       21.977       21.977       21.977            0            0            0     933.2351    -363.7044    455.84137     538.5844    419.02671   -666.08204 
  112500    454.07457   -251.27841    722.34289       21.977       21.977       21.977            0            0            0    521.04347    797.91987    848.06534   -649.03582   -18.368488    581.66648 
  113000    517.03305   -252.68682    133.73218       21.977       21.977       21.977            0            0            0    -583.8283    713.04712    271.97772   -248.90627   -175.38964    52.626217 
  113500    506.95988   -251.65124    690.37088       21.977       21.977       21.977            0            0            0     271.4387     1651.868    147.80591     727.5024    25.647402    761.70507 
  114000    499.46071   -253.09201   -144.48972       21.977       21.977       21.977            0            0            0   -100.83147   -792.46287    459.82518    314.38443    215.74708   -512.18079 
  114500    501.57326   -251.72042    950.48173       21.977       21.977       21.977            0            0            0    1698.7532    765.15222    387.53979   -635.89074    202.23732   -246.33499 
  115000    546.90102   -252.03246     667.9853       21.977       21.977       21.977            0            0            0    853.44462    513.70713    636.80415   -248.05596     158.6303    155.05281 
  115500    496.95286   -250.95741    822.09088       21.977       21.977       21.977            0            0            0    1113.3671    462.93035    889.97517    492.23382   -300.49213   -287.35187 
  116000     506.6752   -251.37263    639.66626       21.977       21.977       21.977            0            0            0    528.70024    1471.3711   -81.072603   -1076.1201    307.29059    39.963539 
  116500    520.26945   -251.77232    575.03264       21.977       21.977       21.977            0            0            0    608.93604    969.65607    146.50579    766.84288    -435.5153   -238.72162 
  117000    498.80414   -251.60745    476.51422       21.977       21.977       21.977            0            0            0   -314.50279    172.55882    1571.4866   -673.81488    1336.1486    595.67384 
  117500    493.66043   -252.94228   -174.08615       21.977       21.977       21.977            0            0            0    1385.2428   -327.24014   -1580.2611    -123.8336    128.12195    89.249989 
  118000    516.17781   -250.40436    910.19859       21.977       21.977       21.977            0            0            0    867.61937    1119.4783    743.49815   -79.003143   -249.44917    242.19641 
  118500    535.50412    -252.2532    497.25747       21.977       21.977       21.977            0            0            0    1083.5917    736.19091   -328.01015    419.81887    -179.5484     499.4762 
  119000    518.63447   -252.23637    414.36774       21.977       21.977       21.977            0            0            0   -160.45609   -9.4846047    1413.0439   -391.62101   -359.38917   -208.49906 
  119500    544.00854   -250.51816    1242.5048       21.977       21.977       21.977            0            0            0    910.55399    2016.1636    800.79681    578.53915   -457.41145    -381.4758 
  120000    532.98614   -252.81689    350.72483       21.977       21.977       21.977            0            0            0    944.40172    67.614754    40.158023    451.31908   -771.88224     38.27273 
  120500    481.89864   -251.14867    808.65006       21.977       21.977       21.977            0            0            0    746.20414    505.81893    1173.9271     716.3916   -327.16399   -48.634062 
  121000    553.03419   -252.19627    630.59172       21.977       21.977       21.977            0            0            0   -326.08535    1140.4889    1077.3716    565.62291     103.0673   -46.984914 
  121500    496.68491   -250.89799    1004.9522       21.977       21.977       21.977            0            0            0    1251.2566    1196.6055    566.99457    188.41372   -999.76121    423.37801 
  122000    540.32439    -249.6894    1458.6856       21.977       21.977       21.977            0            0            0    1945.1269    1040.6028    1390.3273    699.84916    210.93736    35.965629 
  122500    492.46733   -250.37451    1109.8962       21.977       21.977       21.977            0            0            0    862.76866    1374.6498    1092.2702    143.25821    651.18173    649.26468 
  123000    521.14237   -252.74288    419.30258       21.977       21.977       21.977            0            0            0    534.51135    366.96422    356.43218   -446.63905    666.40931   -196.37294 
  123500     533.4557   -251.25179    843.72632       21.977       21.977       21.977            0            0            0     1404.112      1144.74   -17.673069    92.568405   -92.011528   -450.73623 
  124000    489.19715   -250.35492    859.69805       21.977       21.977       21.977            0            0            0    373.48721    2111.5617    94.045189   -1197.8966    149.05403    360.08484 
  124500    462.05597   -251.90379    470.68405       21.977       21.977       21.977            0            0            0    690.60413    540.57041    180.87762    356.73375   -263.04959   -166.74067 
  125000     485.0703   -251.69942    600.86382       21.977       21.977       21.977            0            0            0    228.97718    955.09687     618.5174     -227.721   -275.44877   -445.46166 
  125500    536.44238    -251.0791    952.58028       21.977       21.977       21.977            0            0            0    -551.5685    1410.6986    1998.6108   -237.85237   -224.65039    416.29094 
  126000     506.1416   -251.62675    570.20023       21.977       21.977       21.977            0            0            0    1229.6194    885.88952   -404.90827     775.5507   -182.69092    321.22359 
  126500    468.58481   -251.76133    670.77876       21.977       21.977       21.977            0            0            0    760.34719    1097.7025    154.28656    248.17258   -159.69054   -212.52598 
  127000    481.19145     -251.362    609.06296       21.977       21.977       21.977            0            0            0     708.2163    83.227191    1035.7454   -507.17818    78.956464   -293.26246 
  127500    500.16306   -251.64366     577.0884       21.977       21.977       21.977            0            0            0    656.14629    1285.0537   -209.93484    211.58322   -237.93642    209.65213 
  128000    473.58055   -251.31649    474.69473       21.977       21.977       21.977            0            0            0    29.703975    652.73671    741.64351    122.93971    489.05015    208.05272 
  128500    545.98347   -251.06614    1129.4635       21.977       21.977       21.977            0            0            0    1737.7234    597.97419     1052.693    452.43317    559.97538    455.91703 
  129000    516.07506   -252.31346    628.60181       21.977       21.977       21.977            0            0            0    560.77622    633.14341    691.88579    94.174112    644.15953   -737.02423 
  129500    485.51319   -251.34079    607.54887       21.977       21.977       21.977            0            0            0   -175.60563    760.54392    1237.7083   -175.54189    26.759921     262.6873 
  130000    450.65034   -251.35373    658.06967       21.977       21.977       21.977            0            0            0    287.92238    455.45571    1230.8309     510.1637    62.018226    257.85731 
  130500    517.18377    -250.4818    870.09379       21.977       21.977       21.977            0            0            0    358.69697    707.77255    1543.8118    218.47006    -596.6823   -258.65176 
  131000    514.43974   -252.66712    231.85747       21.977       21.977       21.977            0            0            0    535.37809    566.60538   -406.41106    1003.2907   -123.01229   -217.03252 
  131500    494.48209   -252.24354    305.27283       21.977       21.977       21.977            0            0            0   -837.56826    1209.4284     543.9584   -430.70047    -323.2352    -109.2949 
  132000    465.69527   -252.29564    343.34674       21.977       21.977       21.977            0            0            0   -288.86443   -26.293418    1345.1981   -52.959899   -33.368126   -44.990849 
  132500     562.1263    -250.1269    1330.7535       21.977       21.977       21.977            0            0            0    1534.3751    1195.4502    1262.4352    196.45618   -90.904883    506.07114 
  133000    519.65489   -250.76713    1145.0237       21.977       21.977       21.977            0            0            0    986.18299     1261.231    1187.6572    226.23268    141.99243   -55.276336 
  133500    514.92529   -251.54338    676.69586       21.977       21.977       21.977            0            0            0    535.09737    1091.1287    403.86154    474.23823    657.95938    610.25017 
  134000    473.59269   -251.97668    471.94038       21.977       21.977       21.977            0            0            0   -233.08612    819.36593    829.54132    464.68032   -1009.4772    484.06873 
  134500    465.56465   -251.52469    658.04445       21.977       21.977       21.977            0            0            0    388.47288    1335.2889    250.37154    179.55516    159.30308     518.9291 
  135000    487.66195   -251.71417    460.14992       21.977       21.977       21.977            0            0            0    81.335868   -24.946817    1324.0607   -342.04069   -202.48857    649.75133 
  135500     539.5344   -252.15204    444.97765       21.977       21.977       21.977            0            0            0    621.38042    680.92608    32.626462    484.36577    -204.4346    236.73068 
  136000    525.43073    -251.9279      546.016       21.977       21.977       21.977            0            0            0     137.5684    17.919007    1482.5606    531.30963   -457.19015    326.16754 
  136500    477.55922   -251.48949    698.97637       21.977       21.977       21.977            0            0            0    399.76303    2180.9569   -483.79086    126.89703   -240.60634    267.55628 
  137000    506.75753   -251.70609    696.81395       21.977       21.977       21.977            0            0            0    433.70943    1443.0858    213.64658   -209.32058    540.52725    145.44747 
  137500    502.07098    -249.7428    1033.1375       21.977       21.977       21.977            0            0            0     2218.341    344.42534    536.64621    251.93956   -343.22793   -322.33694 
  138000    543.10936    -251.5777    647.36123       21.977       21.977       21.977            0            0            0    809.89647    680.80199    451.38523   -616.98237   -345.89973     716.3754 
  138500    481.16868   -250.95785    710.50354       21.977       21.977       21.977            0            0            0    1386.2949    616.96718    128.24849    708.26447   -396.04594    158.82074 
  139000    550.62491    -252.0807    734.14664       21.977       21.977       21.977            0            0            0     1128.618     703.4068    370.41515    534.72046   -465.19398    308.88933 
  139500    484.81742   -251.09518    607.13732       21.977       21.977       21.977            0            0            0    928.19682    512.85864    380.35649   -194.92317   -79.375173     198.2615 
  140000    517.42281   -250.61178    986.19064       21.977       21.977       21.977            0            0            0    1466.7909   -508.59723    2000.3783     725.4969   -363.35437   -81.233745 
  140500     563.9243   -251.69851    652.68044       21.977       21.977       21.977            0            0            0    1139.3557   -89.699927    908.38557    544.34504    207.74204    302.61803 
  141000    466.78699   -251.14336    636.71513       21.977       21.977       21.977            0            0            0    939.51246    178.53285    792.10008   -778.68672      258.735   -369.85675 
  141500    504.94199   -251.58816    574.81037       21.977       21.977       21.977            0            0            0    1329.7165    321.31492    73.399744    233.47858    555.58303   -260.35101 
  142000    477.44634   -251.06277    696.61118       21.977       21.977       21.977            0            0            0    1010.9507    557.83683    521.04601   -551.58482   -281.28966    4.7432892 
  142500    494.90132   -250.68632    807.55417       21.977       21.977       21.977            0            0            0    663.72981    -60.00942    1818.9421   -360.05208   -395.13641    597.19723 
  143000    492.18771   -250.69666    840.74996       21.977       21.977       21.977            0            0            0   -238.35837    1265.4379    1495.1703    -68.72957    607.19001    425.26519 
  143500    473.00577   -251.48048    603.73911       21.977       21.977       21.977            0            0            0   -142.49588    1023.0281    930.68514    21.503178    269.99121    360.30763 
  144000    510.41239   -252.82452    496.60901       21.977       21.977       21.977            0            0            0    461.98622    604.39615    423.44465    319.03373   -326.63868   -364.62893 
  144500    502.60029   -250.61454     975.7813       21.977       21.977       21.977            0            0            0    1131.6216    1155.8779    639.84447    939.14594   -134.99971    5.0067207 
  145000     501.0394   -251.90811    377.51205       21.977       21.977       21.977            0            0            0    314.03278    963.16647   -144.66311    331.66523    435.26561   -326.54248 
  145500    519.95326   -251.36999     721.7513       21.977       21.977       21.977            0            0            0    426.36803    926.83171    812.05415    417.85875    288.06421    170.41121 
  146000    482.64134   -252.03408    862.10988       21.977       21.977       21.977            0            0            0    605.74461    804.25359    1176.3315    58.917705   -40.796602    664.53498 
  146500    485.51333   -252.23432    227.85002       21.977       21.977       21.977            0            0            0   -19.982839    627.62579    75.907117   -52.649858    217.24855    94.424001 
  147000    478.59656   -252.63645    312.93174       21.977       21.977       21.977            0            0            0    719.44013    365.12038    -145.7653   -1217.5287    121.96454    319.09831 
  147500    501.91993    -251.6156    627.25709       21.977       21.977       21.977            0            0            0    1225.0649   -113.56566    770.27199   -114.06926    503.97948    189.52114 
  148000     464.5194    -251.2384     716.7613       21.977       21.977       21.977            0            0            0    628.30766    769.21838    752.75786   -159.37151   -924.06589   -176.53863 
  148500    492.84833   -250.74715    973.39418       21.977       21.977       21.977            0            0            0    1292.0553    828.34254    799.78468   -41.440826    624.89648    284.87633 
  149000    461.70282   -252.15926    312.57503       21.977       21.977       21.977            0            0            0    442.10895    297.57224    198.04388    -86.69549   -298.37542    -263.4777 
  149500    537.16497   -253.81715    236.29848       21.977       21.977       21.977            0            0            0    625.79682   -463.46503    546.56364   -130.91334    39.624925    783.69054 
  150000    475.33065   -252.57488    340.85179       21.977       21.977       21.977            0            0            0    576.33924   -8.9142868     455.1304    95.170026    401.10557   -620.43379 
  150500    523.32859   -252.88765    216.77948       21.977       21.977       21.977            0            0            0    997.18313    300.85112    -647.6958   -239.62723    152.28235   -17.703723 
  151000    494.24822   -250.51402    912.24991       21.977       21.977       21.977            0            0            0    1654.9375    783.42684    298.38544   -426.55752    68.443107    417.61263 
  151500    495.19215   -250.10792    1212.9772       21.977       21.977       21.977            0            0            0    694.27823    1019.7566    1924.8968   -178.93055    214.99476    1071.7688 
  152000    521.42963   -251.63827    666.41207       21.977       21.977       21.977            0            0            0    14.613803    1516.3072    468.31516    68.141117    -356.4965    389.43578 
  152500     527.3523   -252.23162    473.89299       21.977       21.977       21.977            0            0            0    420.84536  -0.55067151    1001.3843    189.51627   -58.692475   -214.13704 
  153000    471.67467   -250.88228     589.7143       21.977       21.977       21.977            0            0            0    841.01407    656.70142    271.42742    -532.4759    109.42583   -342.38488 
  153500    477.01516   -251.22074    708.84007       21.977       21.977       21.977            0            0            0    1291.5447    547.63753      287.338   -83.126045    216.80641    680.45395 
  154000     494.0593   -251.32062    411.40401       21.977       21.977       21.977            0            0            0    155.33697   -155.73782    1234.6129    454.70636    113.29092   -136.19898 
  154500    471.52058   -252.30055    107.80682       21.977       21.977       21.977            0            0            0    106.99363   -656.87545    873.30228   -250.56726   -94.477771    179.79219 
  155000    512.73859   -251.71071    611.72294       21.977       21.977       21.977            0            0            0    685.57304    401.69234    747.90344    482.18742   -150.24851    136.89197 
  155500    504.64796   -251.75871    320.25639       21.977       21.977       21.977            0            0            0   -52.992692    296.09075    717.67112   -340.67433     296.8572    266.29583 
  156000    465.32297   -252.26059    343.92854       21.977       21.977       21.977            0            0            0    345.12851   -168.68713    855.34425   -234.11177    487.80008    79.287445 
  156500    496.54524   -251.16962     831.6847       21.977       21.977       21.977            0            0            0   -539.07361     1828.804    1205.3237    503.26908    539.84596    911.54812 
  157000    462.09347   -250.34998    827.38035       21.977       21.977       21.977            0            0            0    1062.5364    1373.0517    46.552924   -301.04726     138.9808   -692.93005 
  157500     551.2333   -251.57992    752.00043       21.977       21.977       21.977            0            0            0    221.57275    1063.2676    971.16098   -271.13462   -57.931324    15.965428 
  158000    500.78322   -252.30746    504.60006       21.977       21.977       21.977            0            0            0    538.31653    615.32503     360.1586   -36.741335   -548.21628   -574.36415 
  158500    457.50563   -252.10139    338.69191       21.977       21.977       21.977            0            0            0    755.02086    419.70675   -158.65189   -7.2096581     343.8291   -503.72322 
  159000    576.36232    -250.7934    1086.3014       21.977       21.977       21.977            0            0            0    433.79531    849.57449    1975.5344    441.36255   -556.01714   -429.30665 
  159500    483.54179   -250.88804    691.26973       21.977       21.977       21.977            0            0            0    -91.08759    234.57916    1930.3176   -250.76106   -308.46853   -34.629636 
  160000    481.90429   -252.68925    256.24643       21.977       21.977       21.977            0            0            0    310.01775    103.01066    355.71089   -66.225445     116.3909   -109.16615 
  160500     480.5131   -250.96165    917.12122       21.977       21.977       21.977            0            0            0     1086.884    767.58497    896.89464     227.5791    641.21375   -886.48191 
  161000    517.50905   -252.28102    320.70795       21.977       21.977       21.977            0            0            0    421.60881   -34.843929    575.35897   -267.06882    135.28915   -39.695361 
  161500    578.45296   -251.60647    884.85713       21.977       21.977       21.977            0            0            0    1048.0681    672.28323    934.22005    17.706271    551.38187   -265.27073 
  162000    506.73744   -251.23755    888.71256       21.977       21.977       21.977            0            0            0    1384.6942    414.10991    867.33356    115.69357   -6.0763494   -58.028082 
  162500     515.4298   -251.13974    897.02542       21.977       21.977       21.977            0            0            0    565.62358    1969.8383     155.6144    161.10243    406.46926    68.290381 
  163000    494.07076   -251.56843     471.5294       21.977       21.977       21.977            0            0            0   -246.00795    646.50399    1014.0921   -387.72395    125.41286   -634.71158 
  163500    508.69322    -250.9709    713.63997       21.977       21.977       21.977            0            0            0    1171.3525    924.84645    44.720973   -503.98684   -289.11908    300.72243 
  164000    479.75795   -251.17314    797.28207       21.977       21.977       21.977            0            0            0    1159.0372        160.8     1072.009   -112.12373   -354.41198    165.60338 
  164500    456.32846   -250.67558    832.37947       21.977       21.977       21.977            0            0            0    395.86368    1172.2596    929.01515   -327.78422   -663.53072     157.8012 
  165000    491.89959   -252.07428    318.54616       21.977       21.977       21.977            0            0            0    1416.1838   -128.12813   -332.41719    418.39739    282.99228    326.92936 
  165500    511.25752   -252.70482    557.32261       21.977       21.977       21.977            0            0            0    1163.0189    222.79557    286.15334    7.3428477   -31.469212   -567.81552 
  166000     553.5728   -250.40126    1045.5809       21.977       21.977       21.977            0            0            0    690.04901     1999.891    446.80276   -155.97078    518.98063   -612.93949 
  166500    460.51679    -252.1567    327.89129       21.977       21.977       21.977            0            0            0    419.79665    322.13373    241.74348   -196.34549    732.12918    94.956454 
  167000    446.61972   -251.36797    581.03111       21.977       21.977       21.977            0            0            0     775.6336     841.0992    126.36053    2.1564932   -64.395321     274.1547 
  167500    524.65298   -250.56631    729.69167       21.977       21.977       21.977            0            0            0   -1.8584079    339.64985    1851.2836    503.65413    39.823482   -308.89067 
  168000    500.17796   -250.28687    1021.3891       21.977       21.977       21.977            0            0            0    1727.7515    921.23867    415.17707   -805.09044   -179.56917   -113.71602 
  168500    509.72113   -251.63685     702.5533       21.977       21.977       21.977            0            0            0    341.43742    912.90421    853.31827    500.01507    79.944279    -168.6056 
  169000    493.84817   -251.15522    602.95363       21.977       21.977       21.977            0            0            0   -139.31547    467.01193    1481.1644    227.95218   -825.67048   -16.954454 
  169500    502.42138   -251.57806    694.23129       21.977       21.977       21.977            0            0            0    2.1226279    1450.3474    630.22381     -625.157    262.00111   -229.32892 
  170000    485.96687   -251.16054    756.59353       21.977       21.977       21.977            0            0            0   -184.19328    1261.3092    1192.6647   -233.97754    -1191.979    11.364674 
  170500    465.93335    -252.1653    147.20625       21.977       21.977       21.977            0            0            0    1446.1323   -503.06545   -501.44809    367.06042     284.1006   -85.407967 
  171000    527.26559   -250.60111    928.77425       21.977       21.977       21.977            0            0            0    1170.1257    974.40964    641.78737   -656.61544   -632.27967   -18.364052 
  171500    510.37251    -249.8821    1398.5911       21.977       21.977       21.977            0            0            0    1964.6079    1110.7737    1120.3917     872.9744   -266.52855   -276.35559 
  172000    475.57883   -250.86429    734.59598       21.977       21.977       21.977            0            0            0    1233.2883    382.80519    587.69449    -384.4648   -1002.9246   -735.12166 
  172500    496.77305   -251.87301    595.93116       21.977       21.977       21.977            0            0            0    821.28568    768.29657    198.21123    30.841437    47.669689    111.42011 
  173000    471.27505   -250.73417    721.49268       21.977       21.977       21.977            0            0            0    456.39588    480.27717     1227.805    34.455831    467.85213    435.23377 
  173500    533.61168   -250.25324    1201.2038       21.977       21.977       21.977            0            0            0    1228.8024    370.00581    2004.8031   -101.93017   -59.969145   -216.90686 
  174000    486.01092   -250.58903    1047.3615       21.977       21.977       21.977            0            0            0    1121.3288    836.29542    1184.4602   -424.19414    243.00889  -0.30428458 
  174500     526.4278    -252.1742    348.48952       21.977       21.977       21.977            0            0            0    42.248561    810.97321    192.24677    377.10466   -180.29131    133.32403 
  175000    500.97945   -251.56762    603.06493       21.977       21.977       21.977            0            0            0    868.85657    734.90583    205.43239    179.41147   -178.60363   -197.65646 
  175500    471.56901    -251.3091    816.79466       21.977       21.977       21.977            0            0            0    1024.4879    948.64507    477.25107   -301.70027   -484.18652    120.18985 
  176000     510.5047    -252.5392    249.67173       21.977       21.977       21.977            0            0            0    908.18412   -165.99169    6.8227741   -300.00942    211.30594    56.248771 
  176500    479.22863   -251.02131    639.92315       21.977       21.977       21.977            0            0            0    1041.1757    567.91132    310.68241    239.97411   -366.71409    1203.6429 
  177000    513.16377   -251.88447    514.56452       21.977       21.977       21.977            0            0            0    1329.2781    141.75995    72.655567   -754.58738    421.19563    75.948796 
  177500    490.04567   -252.58431    207.52838       21.977       21.977       21.977            0            0            0    414.86164    502.25242   -294.52892    505.68233    145.52683    896.61125 
  178000    530.14023   -252.36926    584.34704       21.977       21.977       21.977            0            0            0    303.80814    68.846003     1380.387    368.47815   -513.87323   -1000.5266 
  178500    489.57587   -249.49344    1170.3475       21.977       21.977       21.977            0            0            0    1726.8961    64.449865    1719.6965    223.83151   -279.13568   -318.49993 
  179000    540.87373   -252.27644    522.34618       21.977       21.977       21.977            0            0            0    168.05286    226.77545    1172.2102   -247.95824    956.58619    537.30432 
  179500    515.86949   -251.23265    768.95875       21.977       21.977       21.977            0            0            0    998.71638   -29.901355    1338.0612    1100.0768    1032.3506   -480.56112 
  180000    508.40572   -250.11029     1034.189       21.977       21.977       21.977            0            0            0     1399.596    546.61283    1156.3581   -118.59757   -829.97997   -554.34524 
  180500    475.34642   -252.29858    374.79115       21.977       21.977       21.977            0            0            0    11.146991    642.11596     471.1105    422.03257    694.81777     45.26632 
  181000     498.7904   -249.84346    1171.4453       21.977       21.977       21.977            0            0            0    657.89199    1914.0663    942.37755    454.50618    184.58484    512.79654 
  181500    513.05557   -250.86501    1179.9557       21.977       21.977       21.977            0            0            0    1011.8084    192.97728    2335.0814    -340.2889    325.38228    45.237096 
  182000    516.09431   -251.28682    786.08374       21.977       21.977       21.977            0            0            0     229.3663    1310.2031     818.6818     4.519559   -142.84429    92.453869 
  182500     485.1955   -251.66766    762.25467       21.977       21.977       21.977            0            0            0    1440.8238    817.86977    28.070412    32.372361   -719.84523   -339.44551 
  183000    489.75591   -251.02074    856.55225       21.977       21.977       21.977            0            0            0    1012.0839     929.6992    627.87371   -568.85484   -381.92046    272.27332 
  183500    472.15551   -251.40664    537.92451       21.977       21.977       21.977            0            0            0    702.07379     861.8561    49.843638   -732.36296   -1059.3734    4.1309272 
  184000    468.36994   -250.65653    925.22707       21.977       21.977       21.977            0            0            0       1386.8    538.65669    850.22446    138.63387    203.23434   -61.850442 
  184500    515.51084   -252.05872     450.5427       21.977       21.977       21.977            0            0            0    536.04548    940.72407   -125.14144   -363.58676   -871.13529   -309.30908 
  185000    521.27121   -251.81792    584.29285       21.977       21.977       21.977            0            0            0    97.694904    803.06573    852.11793    171.74447    306.10934   -526.93098 
  185500    511.58823    -250.5881     1062.367       21.977       21.977       21.977            0            0            0    1976.2133     1358.922    -148.0343   -223.91677   -707.30036    49.884896 
  186000    498.42244   -252.95535   0.68665445       21.977       21.977       21.977            0            0            0   -380.33371    1306.0093    -923.6156    396.64972   -582.54235   -149.38036 
  186500    470.06545   -251.28794    327.88465       21.977       21.977       21.977            0            0            0    897.08052    109.07022   -22.496784   -4.4591682    310.33692    150.80438 
  187000    451.84651   -250.89749    783.06044       21.977       21.977       21.977            0            0            0    345.07839    1057.4356    946.66732   -112.80342   -19.813768    326.67356 
  187500    493.60705    -249.4026     1127.582       21.977       21.977       21.977            0            0            0    1887.7139    1108.0016    387.03038    -674.1707   -54.490938   -940.67856 
  188000    457.19308   -250.97801    746.24412       21.977       21.977       21.977            0            0            0    1235.4729   -124.66996    1127.9294    -125.2409    427.88738    745.56757 
  188500    542.07194   -250.09644    1299.3896       21.977       21.977       21.977            0            0            0    1572.6951    1827.0139    498.45972   -540.29356    490.64794    654.24667 
  189000    505.00704   -252.74822    337.02517       21.977       21.977       21.977            0            0            0    918.05418    -268.1386    361.15992    260.73449   -687.62555   -387.56703 
[...]
 4955500     503.8851   -255.97404   -1465.4015       21.977       21.977       21.977            0            0            0   -2024.8802   -1674.6918   -696.63251    296.30847     434.3544    3.7456908 
 4956000    458.02966   -251.90622     319.5738       21.977       21.977       21.977            0            0            0   -468.60563   -12.857593    1440.1846     303.3909   -93.393974   -665.11857 
 4956500    508.59845   -251.81615    635.65705       21.977       21.977       21.977            0            0            0    880.19874    285.52174    741.25067    881.43761   -97.114834    176.40567 
 4957000    496.66014    -254.3575   -635.89899       21.977       21.977       21.977            0            0            0    -925.4788    142.81102   -1125.0292    101.07373   -60.433904   -181.55858 
 4957500    493.15786   -254.06917   -278.35075       21.977       21.977       21.977            0            0            0   -347.62257   -95.606187   -391.82348   -339.17139   -580.61616   -116.00867 
 4958000    577.10665   -253.03896    297.79656       21.977       21.977       21.977            0            0            0    326.98378   -666.29518    1232.7011    466.07077    27.624401    188.94418 
 4958500    495.17146   -256.55148   -1879.5948       21.977       21.977       21.977            0            0            0   -1619.5085   -1772.7492   -2246.5266    -198.0696    852.55553   -189.62308 
 4959000    525.84636   -256.00456   -1353.0545       21.977       21.977       21.977            0            0            0    -1360.124   -1468.2144    -1230.825    79.742023    136.51497    252.19856 
 4959500    445.94532   -250.73863      707.449       21.977       21.977       21.977            0            0            0    365.51739    1304.0879    452.74173   -129.03114   -37.506722    764.81456 
 4960000     482.5237   -254.26316   -715.75475       21.977       21.977       21.977            0            0            0   -584.60308   -1264.4608   -298.20036   -125.83097    328.15437    479.64707 
 4960500      518.565   -253.96329   -467.57951       21.977       21.977       21.977            0            0            0    548.91783   -1241.0306    -710.6258    126.97796    560.80414   -227.64381 
 4961000    490.49891   -248.94939    1384.2353       21.977       21.977       21.977            0            0            0    1410.4661    1020.1606    1722.0793    473.26102    370.05701    729.53061 
 4961500     463.5071   -250.24706    843.18682       21.977       21.977       21.977            0            0            0    1026.6735    360.23103    1142.6559    38.254867   -10.799843   -56.901855 
 4962000    512.09874    -247.0844    1820.0004       21.977       21.977       21.977            0            0            0     2450.637    1210.1655    1799.1987   -533.17859    429.92561   -204.94155 
 4962500     506.2921   -246.71167     2229.274       21.977       21.977       21.977            0            0            0    2209.1695     2815.662    1662.9907    94.248909    18.464844    694.35384 
 4963000    545.62996   -249.75928    1196.4204       21.977       21.977       21.977            0            0            0     1524.802    870.73069    1193.7286    -279.8339    -259.8151    200.27727 
 4963500    497.85316   -247.23582    1979.6786       21.977       21.977       21.977            0            0            0    1537.9372    2343.3158    2057.7827    33.986457    174.59839   -156.69186 
 4964000    491.89397   -246.72933    1872.9925       21.977       21.977       21.977            0            0            0    1793.6821    1961.7422    1863.5533    219.23244    110.36873    158.01397 
 4964500    484.46149   -245.96573    2230.9981       21.977       21.977       21.977            0            0            0    1912.6444    2272.2133    2508.1366    4.4249057   -130.37007   -261.76549 
 4965000    522.63249    -250.5537    1165.2232       21.977       21.977       21.977            0            0            0     737.5241    1683.8734    1074.2721    146.96245   -214.51457    383.16428 
 4965500    487.91899   -248.91406    1305.4789       21.977       21.977       21.977            0            0            0    525.91823    2087.2155    1303.3028   -38.061188    643.42272    245.07276 
 4966000    508.04809   -249.33635    1489.0372       21.977       21.977       21.977            0            0            0     1368.156     1598.316    1500.6396   -619.53894   -140.71944   -234.66166 
 4966500    494.13806   -248.21911    1527.9513       21.977       21.977       21.977            0            0            0    918.72563    2335.1445    1329.9838    501.57696   -656.33718   -123.69844 
 4967000     530.9557   -250.17736    1252.6674       21.977       21.977       21.977            0            0            0    1834.7516    1490.9355    432.31507    -348.7249   -12.718875    110.84865 
 4967500    500.81352   -247.71992     1849.916       21.977       21.977       21.977            0            0            0    1936.0133    1908.2035    1705.5312    258.71968    545.61928   -614.91797 
 4968000    528.10455   -249.38373    1250.1815       21.977       21.977       21.977            0            0            0    1682.5761    948.84823    1119.1202    335.23179    662.56804    -1306.764 
 4968500    486.82548   -253.00192   -79.622506       21.977       21.977       21.977            0            0            0   -425.09986     261.5662   -75.333863   -262.84346    501.91615   -68.461038 
 4969000    488.93463   -254.38921   -650.31927       21.977       21.977       21.977            0            0            0   -169.88928   -374.55397   -1406.5145    292.15374    223.21924    111.22182 
 4969500     511.4048   -254.26337   -364.10026       21.977       21.977       21.977            0            0            0    -80.45355   -73.101548   -938.74568   -263.09567   -366.75719   -122.52824 
 4970000    482.01884   -251.78441    408.92109       21.977       21.977       21.977            0            0            0    78.941967     642.1526    505.66871    545.29764    207.57316   -107.33306 
 4970500    538.52374   -252.02919    828.54775       21.977       21.977       21.977            0            0            0    493.87714    879.01934    1112.7468    68.783257   -470.29057    -275.1502 
 4971000    495.71748   -253.41698    -240.6447       21.977       21.977       21.977            0            0            0   -557.79487   -1258.3966    1094.2573    1006.5685   -536.49315    753.00544 
 4971500     493.2632   -252.58892    4.0320855       21.977       21.977       21.977            0            0            0     -122.498   -262.24422    396.83849    529.25369    118.03642    581.89506 
 4972000    529.46568    -251.8694     496.4145       21.977       21.977       21.977            0            0            0    431.17114    1164.0413   -105.96892   -227.62359    -1023.872   -673.71068 
 4972500    580.73414   -253.06347    327.73534       21.977       21.977       21.977            0            0            0    830.92368     -138.491    290.77335    -674.5186    201.11236    4.1640395 
 4973000    480.65411   -250.46447    952.38532       21.977       21.977       21.977            0            0            0    1153.5437    918.07762    785.53462    -28.16629   -468.77719   -507.47064 
 4973500    556.19371   -249.64906    1650.9516       21.977       21.977       21.977            0            0            0    1364.9099    1672.2598    1915.6852    291.56769   -252.72008   -96.717091 
 4974000    519.74772   -247.07989    2262.0035       21.977       21.977       21.977            0            0            0    1832.9426    1707.6548    3245.4131     93.96713    326.89768     234.4098 
 4974500    500.96697   -247.37847    1879.9893       21.977       21.977       21.977            0            0            0    1873.1827     1595.261    2171.5241    794.66765    173.57602   -710.26405 
 4975000    487.14437   -248.55643     1555.785       21.977       21.977       21.977            0            0            0    1648.2895    1059.6456    1959.4199   -386.79835     477.5038    294.35676 
 4975500    437.32387   -247.80017    1547.4899       21.977       21.977       21.977            0            0            0    2092.7151    1156.5825    1393.1721   -468.59717    365.42058   -113.51045 
 4976000    522.64292   -247.13538     2061.647       21.977       21.977       21.977            0            0            0    2677.4144    2011.6545    1495.8721    46.186372    515.52487   -58.026947 
 4976500    490.66741   -248.96462    1590.3911       21.977       21.977       21.977            0            0            0    725.27972    1718.8547     2327.039    590.53415    283.34226    169.18021 
 4977000     522.4044   -246.22656    2201.1242       21.977       21.977       21.977            0            0            0    2131.4909     2479.149    1992.7327    18.173994    793.74731    35.256532 
 4977500    548.47687   -248.86721    1510.0689       21.977       21.977       21.977            0            0            0    1686.7723    689.84292    2153.5916    218.07805   -281.15299   -155.41051 
 4978000      467.321   -246.63728    2012.5893       21.977       21.977       21.977            0            0            0    1601.3611    2004.9119    2431.4949   -3.0403806   -254.86256    48.156073 
 4978500    538.57097   -250.53274    810.41991       21.977       21.977       21.977            0            0            0    903.61544    306.58323    1221.0611    104.20654    -402.6424    234.49545 
 4979000    511.51856   -252.71585    171.77968       21.977       21.977       21.977            0            0            0    16.631806     691.6256   -192.91835   -352.22763    113.12081     8.608891 
 4979500    528.85958   -252.41181    269.48311       21.977       21.977       21.977            0            0            0    387.52463   -557.97497    978.89966    383.09722    17.340399    188.69912 
 4980000    510.06885   -247.84992    1931.4481       21.977       21.977       21.977            0            0            0    1647.2255    2153.9287    1993.1902   -178.33401    53.579364    -508.6241 
 4980500    546.13677   -247.57518    1991.3105       21.977       21.977       21.977            0            0            0    2020.8465    2048.4383    1904.6467    115.46402    317.09181   -126.60588 
 4981000    518.71933     -249.332    1565.8762       21.977       21.977       21.977            0            0            0    1320.6784    2297.3294    1079.6208    21.707031   -37.572947   -529.66766 
 4981500    459.28682   -251.77754    134.06902       21.977       21.977       21.977            0            0            0   -568.70495    805.24288    165.66911     500.2667   -94.727971    61.143272 
 4982000    533.19764    -252.0912    378.58895       21.977       21.977       21.977            0            0            0    239.13536     1085.886   -189.25449   -561.51816    48.430492   -89.869915 
 4982500    484.84669   -252.09138    175.70649       21.977       21.977       21.977            0            0            0   -166.75615    303.67473     390.2009    194.81082    213.24233    494.71074 
 4983000    487.78095   -254.10677   -376.82219       21.977       21.977       21.977            0            0            0   -1007.0569    1141.7642   -1265.1738   -204.77739   -851.86704    33.237666 
 4983500    503.11948   -253.59003   -418.83311       21.977       21.977       21.977            0            0            0   -135.30355    -611.1318   -510.06398   -72.489545   -734.69854   -608.39342 
 4984000    455.60718   -252.87959   -196.40718       21.977       21.977       21.977            0            0            0    138.25162    -905.7043    178.23114    219.90787   -570.33764    158.41985 
 4984500    493.59738    -253.3206   -393.26859       21.977       21.977       21.977            0            0            0   -698.41438    255.12671   -736.51811   -507.10151   -377.30364    558.68965 
 4985000    502.08263   -248.62468    1635.2506       21.977       21.977       21.977            0            0            0    1317.3101    2098.3492    1490.0924    244.38564    529.60282   -209.92052 
 4985500    456.92815   -250.62601    670.22655       21.977       21.977       21.977            0            0            0    478.83196    1733.1306   -201.28291    415.28741    159.48932     46.62747 
 4986000    523.73486   -251.08086    773.03273       21.977       21.977       21.977            0            0            0    851.75021    488.11926    979.22871   -146.98488    513.22352   -280.85356 
 4986500    515.77796   -253.20356   -93.310077       21.977       21.977       21.977            0            0            0   -203.33865   -799.25369    722.66211   -27.390254   -168.27748    457.90921 
 4987000    515.56595   -248.98822    1411.3247       21.977       21.977       21.977            0            0            0    1593.1087    1300.2232    1340.6421   -82.781803    775.47599    611.37906 
 4987500    464.44938   -249.27635    1157.1353       21.977       21.977       21.977            0            0            0    1698.3853     794.8102    978.21025   -119.74562    324.50873    276.94231 
 4988000    479.00855    -251.3991    624.74846       21.977       21.977       21.977            0            0            0    808.91626     334.3453    730.98383    73.187491   -61.078342   -80.701007 
 4988500    495.08355   -248.64243    1674.6257       21.977       21.977       21.977            0            0            0    1937.2747     1020.105    2066.4974    444.80851    823.92662    189.26982 
 4989000    511.87058   -246.98638    2003.3588       21.977       21.977       21.977            0            0            0    2163.5234    2487.9696    1358.5835     76.37404    -204.4617    113.50567 
 4989500    528.84103   -249.97495    1212.2515       21.977       21.977       21.977            0            0            0    1125.2741    888.93755    1622.5427   -37.598453     92.42994   -792.83052 
 4990000    452.88866   -252.97146   -99.410434       21.977       21.977       21.977            0            0            0    157.48082    -45.57636   -410.13576    242.33102     299.4003   -153.54214 
 4990500    493.69933   -253.13127    40.648582       21.977       21.977       21.977            0            0            0    887.91391   -303.71378   -462.25438    1069.1797    530.33187   -659.46594 
 4991000    455.35462   -253.95533   -667.78822       21.977       21.977       21.977            0            0            0   -99.716469   -1171.9499   -731.69833   -63.040934    229.83744    405.35354 
 4991500    448.54403   -250.95764    752.60858       21.977       21.977       21.977            0            0            0    1873.8698    581.76872   -197.81279   -41.804124   -160.65086    189.75812 
 4992000     526.0428   -252.99252    61.154052       21.977       21.977       21.977            0            0            0     36.03144    806.37289   -658.94218   -935.27605   -198.58919    162.89426 
 4992500    484.68778   -254.75429   -928.32839       21.977       21.977       21.977            0            0            0   -1511.4653   -641.35074   -632.16911   -1317.0294   -49.373868    139.99316 
 4993000    484.09765   -252.35867    490.83324       21.977       21.977       21.977            0            0            0    383.14596    395.40474    693.94903   -103.10034    529.04868    25.242479 
 4993500    490.47758    -251.3072    780.10157       21.977       21.977       21.977            0            0            0    198.28124    1348.7819    793.24154    106.23505   -437.07945    344.41742 
 4994000    445.17155   - 4993500    490.47758    -251.3072    780.10157       21.977       21.977       21.977            0            0            0    198.28124    1348.7819    793.24154    106.23505   -437.07945    344.41742 
 4994000    445.17155   -249.06124    1356.7162       21.977       21.977       21.977            0            0            0    1478.8916    1402.3968    1188.8602    424.61606    903.90916    126.83133 
 4994500    496.94238   -246.88988      2159.57       21.977       21.977       21.977            0            0            0    2212.8362    2585.0265    1680.8472   -127.26719    389.26303    44.387478 
 4995000    489.42409   -246.73675    2171.3886       21.977       21.977       21.977            0            0            0    2116.1196    2513.8434    1884.2028    216.80879    165.49973    185.03862 
 4995500    505.86232   -248.29988    1621.7136       21.977       21.977       21.977            0            0            0    1644.1461    1775.6027     1445.392    298.96782    -85.58001   -759.78351 
 4996000    503.20819   -250.04992    1186.3977       21.977       21.977       21.977            0            0            0    1006.8029    319.78528    2232.6048     580.7178   -104.97751   -59.594976 
 4996500    526.07199   -249.75968    1385.6355       21.977       21.977       21.977            0            0            0    1897.0681    1074.6974    1185.1411    163.18734   -173.12466   -76.736395 
 4997000    511.86688   -250.11694    1168.2898       21.977       21.977       21.977            0            0            0    1703.6562    1436.4214    364.79173   -777.02855    431.29711    4.3007652 
 4997500    493.09775   -247.27977    1911.0904       21.977       21.977       21.977            0            0            0    618.83249    2992.0579    2122.3808    59.301125    185.82355     450.2202 
 4998000    485.99258   -248.70478      1502.87       21.977       21.977       21.977            0            0            0    1002.5431    1527.4461    1978.6207    132.57057   -42.453314   -927.53833 
 4998500    472.40527   -248.95921    1352.8613       21.977       21.977       21.977            0            0            0    1007.9584    1564.0385    1486.5872    267.05484   -198.09149   -113.94651 
 4999000    526.98678   -246.57146    2014.7447       21.977       21.977       21.977            0            0            0    2229.2486    1873.7774    1941.2081    165.46706    65.438454     209.0307 
 4999500    491.63697   -247.69346    1757.8452       21.977       21.977       21.977            0            0            0    1732.1035    2254.5172     1286.915   -197.26295     601.4568   -879.86888 
 5000000    483.73165   -247.06413    1889.3263       21.977       21.977       21.977            0            0            0    1639.6489    2096.6054    1931.7246     503.8175   -1.4483497   -125.88234 
Loop time of 1371.14 on 10 procs for 5000000 steps with 250 atoms

Performance: 630.134 ns/day, 0.038 hours/ns, 3646.610 timesteps/s
97.5% CPU use with 10 MPI tasks x no OpenMP threads

MPI task timing breakdown:
Section |  min time  |  avg time  |  max time  |%varavg| %total
---------------------------------------------------------------
Pair    | 625.26     | 687.27     | 752.38     | 132.0 | 50.12
Neigh   | 10.398     | 11.194     | 12.12      |  16.6 |  0.82
Comm    | 230.11     | 294.71     | 356.53     | 204.0 | 21.49
Output  | 123.06     | 123.07     | 123.09     |   0.1 |  8.98
Modify  | 237.85     | 241.19     | 245.76     |  15.4 | 17.59
Other   |            | 13.71      |            |       |  1.00

Nlocal:    25 ave 30 max 22 min
Histogram: 1 1 3 2 0 1 1 0 0 1
Nghost:    917.2 ave 936 max 892 min
Histogram: 1 0 2 0 1 0 1 3 1 1
Neighs:    1723.4 ave 2154 max 1482 min
Histogram: 2 2 1 2 1 0 0 0 1 1

Total # of neighbors = 17234
Ave neighs/atom = 68.936
Neighbor list builds = 155113
Dangerous builds = 0

write_data	data.final
System init for write_data ...

write_restart	restart.lmp
System init for write_restart ...

Total wall time: 0:24:27
