LAMMPS (16 Jul 2018)
echo both

include		in.temp
variable	temperature equal 500.
variable	tempDamp equal 0.1 # approx 0.1 ps
include		in.pressure
variable	pressure equal 1.
variable	pressureDamp equal 1.0
include 	in.seed
variable	seed equal 74581
units		metal
include		in.box
read_data	data.equil
  orthogonal box = (0 0 0) to (21.977 21.977 21.977)
  1 by 1 by 2 MPI processor grid
  reading atoms ...
  250 atoms
  reading velocities ...
  250 velocities

variable 	mass equal 22.98977
mass            1 ${mass}
mass            1 22.98977
include 	in.setup
variable	out_freq equal 500
variable	out_freq2 equal 500

neigh_modify    delay 10 every 1
include		in.na
pair_style      eam/fs
pair_coeff      * * Na_MendelevM_2014.eam.fs Na

timestep	0.002 # According to Frenkel and Smit is 0.001

thermo          ${out_freq}
thermo          500
thermo_style 	custom step temp pe press lx ly lz xy xz yz pxx pyy pzz pxy pxz pyz


restart 	${out_freq} restart.lmp restart2.lmp
restart 	500 restart.lmp restart2.lmp



# NPT

fix             1 all nve
fix             2 all temp/csvr ${temperature} ${temperature} ${tempDamp} ${seed}
fix             2 all temp/csvr 500 ${temperature} ${tempDamp} ${seed}
fix             2 all temp/csvr 500 500 ${tempDamp} ${seed}
fix             2 all temp/csvr 500 500 0.1 ${seed}
fix             2 all temp/csvr 500 500 0.1 74581

velocity        all create ${temperature} ${seed} dist gaussian
velocity        all create 500 ${seed} dist gaussian
velocity        all create 500 74581 dist gaussian

run             5000
Neighbor list info ...
  update every 1 steps, delay 10 steps, check yes
  max neighbors/atom: 2000, page size: 100000
  master list distance cutoff = 11.2
  ghost atom cutoff = 11.2
  binsize = 5.6, bins = 4 4 4
  1 neighbor lists, perpetual/occasional/extra = 1 0 0
  (1) pair eam/fs, perpetual
      attributes: half, newton on
      pair build: half/bin/atomonly/newton
      stencil: half/bin/3d/newton
      bin: standard
Per MPI rank memory allocation (min/avg/max) = 3.01 | 3.01 | 3.01 Mbytes
Step Temp PotEng Press Lx Ly Lz Xy Xz Yz Pxx Pyy Pzz Pxy Pxz Pyz 
       0          500   -257.19306   -1137.0247       21.977       21.977       21.977            0            0            0   -1654.8715   -1108.7106   -647.49191    91.506737    490.28842    74.097184 
     500    471.38791   -252.03598    352.87881       21.977       21.977       21.977            0            0            0    656.76657   -22.291876    424.16175    421.40849    382.83323   -721.50707 
    1000    520.19701   -252.31246    463.12051       21.977       21.977       21.977            0            0            0    1171.8958    211.86736    5.5983354    759.16748   -175.66081   -306.24659 
    1500    507.55529   -251.60242    500.51317       21.977       21.977       21.977            0            0            0    224.06757    365.51322    911.95874   -489.24107    134.38102    31.714401 
    2000    479.70009   -252.04461     504.7497       21.977       21.977       21.977            0            0            0    476.87389    211.14411    826.23109    117.01935    641.45447   -52.828632 
    2500    553.71905      -251.02    945.65527       21.977       21.977       21.977            0            0            0    693.15744    1254.2002    889.60821    459.07484   -859.12048    494.71941 
    3000    485.90991    -251.6715    471.34966       21.977       21.977       21.977            0            0            0    639.06714   -97.465794    872.44763    171.58059    -232.1978   -263.70246 
    3500    487.16577    -252.8103   -45.749571       21.977       21.977       21.977            0            0            0     758.9054   -187.75028   -708.40383    140.43723   -782.91865    687.19186 
    4000    491.25057   -252.70201    415.60285       21.977       21.977       21.977            0            0            0    544.96089    1689.8756   -988.02793   -456.72492   -596.51666   -531.22338 
    4500    473.77402   -251.46078     736.2743       21.977       21.977       21.977            0            0            0    472.71779    1710.8524    25.252705   -610.51175   -32.604282   -3.6289751 
    5000    457.42842   -250.05009    925.66916       21.977       21.977       21.977            0            0            0    1960.0285     974.5529   -157.57389   -140.35015    281.17593    709.76501 
Loop time of 3.39113 on 2 procs for 5000 steps with 250 atoms

Performance: 254.782 ns/day, 0.094 hours/ns, 1474.434 timesteps/s
95.4% CPU use with 2 MPI tasks x no OpenMP threads

MPI task timing breakdown:
Section |  min time  |  avg time  |  max time  |%varavg| %total
---------------------------------------------------------------
Pair    | 2.623      | 2.7397     | 2.8563     |   7.0 | 80.79
Neigh   | 0.059215   | 0.060992   | 0.062769   |   0.7 |  1.80
Comm    | 0.12283    | 0.24134    | 0.35985    |  24.1 |  7.12
Output  | 0.31015    | 0.3102     | 0.31024    |   0.0 |  9.15
Modify  | 0.027598   | 0.027768   | 0.027938   |   0.1 |  0.82
Other   |            | 0.01117    |            |       |  0.33

Nlocal:    125 ave 126 max 124 min
Histogram: 1 0 0 0 0 0 0 0 0 1
Nghost:    1421 ave 1422 max 1420 min
Histogram: 1 0 0 0 0 0 0 0 0 1
Neighs:    8624 ave 9269 max 7979 min
Histogram: 1 0 0 0 0 0 0 0 0 1

Total # of neighbors = 17248
Ave neighs/atom = 68.992
Neighbor list builds = 153
Dangerous builds = 0

unfix		1
unfix		2

reset_timestep	0

timer 		timeout 23:50:00 every 1000
New timer settings: style=normal  mode=nosync  timeout=23:50:00

fix             1 all plumed plumedfile plumed.dat outfile plumed.out
fix             2 all nve
fix             3 all temp/csvr ${temperature} ${temperature} ${tempDamp} ${seed}
fix             3 all temp/csvr 500 ${temperature} ${tempDamp} ${seed}
fix             3 all temp/csvr 500 500 ${tempDamp} ${seed}
fix             3 all temp/csvr 500 500 0.1 ${seed}
fix             3 all temp/csvr 500 500 0.1 74581

run             500000
Per MPI rank memory allocation (min/avg/max) = 3.01 | 3.01 | 3.01 Mbytes
Step Temp PotEng Press Lx Ly Lz Xy Xz Yz Pxx Pyy Pzz Pxy Pxz Pyz 
       0    457.42842   -250.05009    925.66916       21.977       21.977       21.977            0            0            0    1960.0285     974.5529   -157.57389   -140.35015    281.17593    709.76501 
     500    476.78613   -251.27617     793.8206       21.977       21.977       21.977            0            0            0    1219.2225    1165.8203   -3.5809954   -250.31016    321.86862   -92.890606 
    1000    488.31398   -251.84834    301.33843       21.977       21.977       21.977            0            0            0     301.6344    497.80948    104.57139    245.84959   -185.28466   -289.31628 
    1500     508.9466   -250.74075    1064.5216       21.977       21.977       21.977            0            0            0    1773.7412    637.58229     782.2414   -269.00712   -13.303667    70.839806 
    2000    468.31552   -251.02834    794.89384       21.977       21.977       21.977            0            0            0    1447.2185    60.681098    876.78193    447.05739   -304.33404      -537.22 
    2500    562.82294   -250.46695    1032.6586       21.977       21.977       21.977            0            0            0    546.18592    926.50323    1625.2866   -89.491501    891.47298   -187.80892 
    3000    503.87288   -251.62804    744.95185       21.977       21.977       21.977            0            0            0    411.04735    983.75021    840.05799   -662.33189    410.59637     543.5216 
    3500    476.03992   -251.64413    399.79673       21.977       21.977       21.977            0            0            0     531.0083    464.82859    203.55329   -20.890316   -162.77924   -78.899083 
    4000     547.4431   -252.62577    374.76674       21.977       21.977       21.977            0            0            0    227.39908    808.34574    88.555396   -795.58792   -118.75426   -180.33516 
    4500    492.50172   -252.67616    337.31218       21.977       21.977       21.977            0            0            0    466.33327   -74.013835     619.6171    35.462487    339.94979    5.9621139 
    5000    498.17099   -253.17008    38.402713       21.977       21.977       21.977            0            0            0   -206.65902    486.79881   -164.93165   -469.01432    131.40847    370.69254 
    5500    527.04157   -250.56173    1198.6404       21.977       21.977       21.977            0            0            0    1052.8986    563.79421    1979.2285    153.39615    689.19201    68.527958 
    6000     465.9974    -251.7039     490.3788       21.977       21.977       21.977            0            0            0    1132.0413    113.08474     226.0104   -66.693768   -261.33722    561.39842 
    6500    530.26634   -250.56961    760.74065       21.977       21.977       21.977            0            0            0    748.13669    769.67157    764.41367    329.87114   -874.21818    -328.7627 
    7000    462.27422   -251.68475    462.87606       21.977       21.977       21.977            0            0            0    213.48482      627.108    548.03534   -490.80363    891.05328   -137.01765 
    7500    527.92568    -251.1459    888.98301       21.977       21.977       21.977            0            0            0    496.08385    1299.9663    870.89882    37.136729    644.46909   -811.92991 
    8000    487.28572   -250.47618     973.9939       21.977       21.977       21.977            0            0            0    1058.5299    1241.1061    622.34573   -277.93918    31.270071   -71.328923 
    8500    483.34138   -250.38351    995.52582       21.977       21.977       21.977            0            0            0    1402.0667    488.36371     1096.147    303.51641   -413.68569    68.113784 
    9000     506.5027   -252.13974    417.64669       21.977       21.977       21.977            0            0            0    41.011001    867.57429    344.35477    1054.7394   -538.33073   -1180.7062 
    9500     473.0408   -251.23447    711.00171       21.977       21.977       21.977            0            0            0    521.45064     706.5255    905.02899   -278.65748    858.73277    225.99378 
   10000    517.83424   -251.36079    804.03724       21.977       21.977       21.977            0            0            0    920.40607    665.73849    825.96716    466.72259   -294.58345   -53.900846 
   10500    498.82185   -252.56396    332.72315       21.977       21.977       21.977            0            0            0    639.16314    22.096308    336.91001    178.17324    653.80906    1031.3421 
   11000    494.66246   -251.03382    873.55524       21.977       21.977       21.977            0            0            0    1025.2262    644.29146    951.14807   -273.94368   -472.74184    188.29425 
   11500    478.82695    -250.8604    790.54677       21.977       21.977       21.977            0            0            0    100.52284    1648.3022    622.81528    81.096243    767.10722    167.52398 
   12000      508.561   -252.19511    580.41974       21.977       21.977       21.977            0            0            0    63.646011    286.26219     1391.351    779.54986   -74.745395   -464.03545 
   12500    512.03741   -252.24183    514.17816       21.977       21.977       21.977            0            0            0   -388.81527    782.89223    1148.4575   -130.70361    138.14748    138.52216 
   13000    516.21367   -250.84132    838.90244       21.977       21.977       21.977            0            0            0    1381.9746    448.14869    686.58409   -499.76108    633.55764   -337.18102 
   13500    526.11098   -249.22082    1479.1688       21.977       21.977       21.977            0            0            0    1974.4202    897.54185    1565.5444    579.30664   -96.912988    137.39555 
   14000    488.72784   -251.58876    606.98622       21.977       21.977       21.977            0            0            0    732.49897     246.8453    841.61439    357.47918    550.61049    623.64272 
   14500     510.3307   -251.44098    510.01254       21.977       21.977       21.977            0            0            0   -84.975383    182.81292    1432.2001    403.50607   -92.482031   -112.41165 
   15000    488.49342   -251.57623    865.55498       21.977       21.977       21.977            0            0            0    941.89757    1048.1985    606.56885     296.1066    234.55849   -229.96684 
   15500    439.88075   -251.49389    302.39181       21.977       21.977       21.977            0            0            0    332.12381    251.90753    323.14409   -217.73644   -146.85872    -141.5473 
   16000     503.1163   -252.31585    566.11563       21.977       21.977       21.977            0            0            0    771.67643    397.66181    529.00864   -291.98649   -536.61954   -26.273846 
   16500    435.10563    -251.2646    276.18897       21.977       21.977       21.977            0            0            0     103.8506    801.57419   -76.857877   -106.81573   -620.08428   -164.46966 
   17000     553.5743   -250.85233    1026.1997       21.977       21.977       21.977            0            0            0    1621.0887    1347.1302    110.38024    998.57164     153.3172   -144.13096 
   17500    515.36255   -250.93525     844.2024       21.977       21.977       21.977            0            0            0   -243.54744    2440.4718    335.68286    80.318881    50.325489   -359.93502 
   18000    498.53637   -251.97905    522.28184       21.977       21.977       21.977            0            0            0    141.29139    675.92577    749.62836    691.16007    59.236687   -295.25487 
   18500    503.25031   -252.61215       185.69       21.977       21.977       21.977            0            0            0   -675.72611    710.87024    521.92588    461.92928    117.96311    122.16779 
   19000    481.72969   -251.52132    537.16823       21.977       21.977       21.977            0            0            0   -190.24401    101.38952    1700.3592    327.36331     251.0646   -1226.9525 
   19500    498.00806    -250.9409     729.1769       21.977       21.977       21.977            0            0            0    229.78404    520.06776    1437.6789   -549.68287    608.77727   -225.06058 
   20000    524.54424   -251.25236    876.64607       21.977       21.977       21.977            0            0            0    2176.2058    257.02598    196.70648    29.085111     115.9701   -38.437103 
   20500    523.53481   -251.32603    977.92949       21.977       21.977       21.977            0            0            0    718.42103    987.72117    1227.6463    276.33336    -215.2383     593.3131 
   21000    496.47587   -251.17701    657.29165       21.977       21.977       21.977            0            0            0    1507.7781    265.58856    198.50827   -49.321703   -145.44901    114.93859 
   21500    528.88724   -250.68788    1131.8168       21.977       21.977       21.977            0            0            0    1178.1932    681.21059    1536.0466     15.89256   -528.91717   -638.78968 
   22000    519.77675   -251.99137    467.24458       21.977       21.977       21.977            0            0            0    196.51268    405.18999    800.03107   -332.43579   -497.67006   -916.32967 
   22500    481.93743   -250.21185    956.10521       21.977       21.977       21.977            0            0            0    1781.9825    237.55821    848.77488    308.45166    221.76375    395.55324 
   23000    483.39409   -252.03338    476.42707       21.977       21.977       21.977            0            0            0    463.70575    443.23539    522.34008    264.96972    212.37837    519.17396 
   23500     528.7323   -251.40639    740.56123       21.977       21.977       21.977            0            0            0   -186.68207    806.96603    1601.3997   -120.16028   -59.340189   -464.84456 
   24000      495.873   -251.96466    421.61949       21.977       21.977       21.977            0            0            0    283.03764    203.87884    777.94198   -154.42443    79.952352    117.94802 
   24500    535.73365   -251.89536    706.38632       21.977       21.977       21.977            0            0            0    557.44297    959.24543    602.47055   -32.195103    360.51989   -212.24349 
   25000    495.92092   -250.61607    1073.1308       21.977       21.977       21.977            0            0            0    1235.5168    834.51509    1149.3605   -249.33936   -835.12565    -100.5236 
   25500    535.79672   -251.79243    807.40825       21.977       21.977       21.977            0            0            0    564.34166    1566.3135    291.56962    276.80532   -175.15518     328.8307 
   26000    512.28426    -252.1079    551.18216       21.977       21.977       21.977            0            0            0     953.8432    1293.3428   -593.63949   -248.37226   -236.22401    635.06355 
   26500    448.87177   -251.73767    328.86217       21.977       21.977       21.977            0            0            0   -190.04192    764.97929    411.64914     406.3221    14.675296   -306.57718 
   27000    463.70883   -250.79339    636.26053       21.977       21.977       21.977            0            0            0    598.85219    324.71212    985.21729    670.56872    474.35331   -205.23229 
   27500    492.18148   -251.48603    608.32618       21.977       21.977       21.977            0            0            0    961.66876    459.83584    403.47393   -590.10781   -674.10293   -99.677395 
   28000    491.13441   -250.93891    769.09384       21.977       21.977       21.977            0            0            0     1088.401     919.2699    299.61065    33.071234    732.61597    32.426905 
   28500    534.13018   -252.26986    529.84856       21.977       21.977       21.977            0            0            0     733.8234    284.25438    571.46789    615.17325   -219.05256    60.937886 
   29000    520.55818   -251.58637    846.52205       21.977       21.977       21.977            0            0            0    276.61736    1563.4761    699.47266   -109.12398    2.9643552    170.59883 
   29500    543.21301   -252.25297    715.34065       21.977       21.977       21.977            0            0            0    644.49567    879.74603    621.78026    170.44237   -115.60838    285.91926 
   30000    470.56339   -253.75871   -227.27063       21.977       21.977       21.977            0            0            0    1188.6812    -1521.583   -348.91014    335.48682    698.95698   -147.50818 
   30500    470.20114   -251.17037    490.35762       21.977       21.977       21.977            0            0            0   -233.58029    790.52517    914.12796   -232.08562   -866.15691    408.57547 
   31000    482.98737   -251.42132    470.84022       21.977       21.977       21.977            0            0            0    1050.7489    303.52152    58.250244   -619.72203    186.16499    312.78083 
   31500    489.20789   -251.55565    608.80055       21.977       21.977       21.977            0            0            0    884.61004    300.25807    641.53353   -544.40597   -643.17133   -89.143978 
   32000    527.11433   -250.63936    864.63458       21.977       21.977       21.977            0            0            0       528.03    875.09217    1190.7816    596.88098    77.710407   -236.45749 
   32500    521.66527   -252.44655    402.54654       21.977       21.977       21.977            0            0            0    1105.5632    408.71929   -306.64288    491.19041    309.26279   -545.64624 
   33000    529.19277   -250.92426    1185.6074       21.977       21.977       21.977            0            0            0    1125.4614    1620.8974     810.4635    -371.4486   -864.95331   -363.36519 
   33500    524.28147   -253.66359    78.792898       21.977       21.977       21.977            0            0            0    411.49516    245.53476   -420.65123    960.47793    34.492202     390.1591 
   34000     508.6718   -252.28855    253.09229       21.977       21.977       21.977            0            0            0    153.98396    296.34945    308.94346   -488.29439   -220.88968    922.64365 
   34500    485.75588   -250.72599    863.73281       21.977       21.977       21.977            0            0            0    539.99524   -229.55773    2280.7609   -71.564728    203.56037   -662.09041 
   35000    464.83172    -251.3413    437.58173       21.977       21.977       21.977            0            0            0    741.53487    380.22589    190.98441    111.36057     379.8457    260.34689 
   35500    511.82799   -251.29834    935.12782       21.977       21.977       21.977            0            0            0    1262.4901    584.73426    958.15906    461.91837    773.96516   -38.614128 
   36000    480.29463   -251.35678    570.01481       21.977       21.977       21.977            0            0            0    71.999842    698.28006    939.76453   -318.14055   -463.84378    219.90915 
   36500    505.09009   -250.27252     1000.863       21.977       21.977       21.977            0            0            0    1275.3534    1072.9543    654.28119   -92.359001    525.13164     68.38823 
   37000    518.36087   -251.28999    750.89433       21.977       21.977       21.977            0            0            0    1613.3139   -41.766902    681.13602    650.85616   -81.336064   -616.11591 
   37500     495.4678   -250.22894    1026.2285       21.977       21.977       21.977            0            0            0    1237.4266    600.69621    1240.5626   -37.198828   -179.73097    42.908798 
   38000    510.20362   -251.38574    586.08932       21.977       21.977       21.977            0            0            0    109.71549    123.67284    1524.8796   -473.04673    776.13347    323.95268 
   38500    509.47142   -249.62045     1224.122       21.977       21.977       21.977            0            0            0    1962.1942    715.54297    994.62899   -542.49764    194.44591   -949.66564 
   39000    510.73382   -252.12712    379.29124       21.977       21.977       21.977            0            0            0    170.00592      155.251    812.61679    131.37791    168.99532    61.734853 
   39500    504.02203   -249.97379    1025.6587       21.977       21.977       21.977            0            0            0    941.23912    1836.6378    299.09902   -462.78316    253.58495   -89.833388 
   40000    523.02405   -252.10036    518.80204       21.977       21.977       21.977            0            0            0    703.44626    287.68587      565.274    209.57768    426.42385    427.85592 
   40500    518.97758   -250.13945    1345.3108       21.977       21.977       21.977            0            0            0    1033.5197    1665.0322    1337.3805    172.05623    723.02726   -277.34494 
   41000    480.34701   -251.10694    653.50021       21.977       21.977       21.977            0            0            0    660.75047     1115.272     184.4781   -94.514767    6.7355805   -104.68335 
   41500    477.85965   -253.06575   -42.028098       21.977       21.977       21.977            0            0            0   -467.92423    112.02643    229.81351   -193.40641   -849.05883    407.89558 
   42000    508.37051   -251.37281    838.04378       21.977       21.977       21.977            0            0            0    700.41855    1021.6909    792.02187   -3.9591487    159.36424   -226.92774 
   42500    507.21863   -251.22064    817.10857       21.977       21.977       21.977            0            0            0    764.33078    829.00701    857.98792    101.43983    602.60366    255.65839 
   43000     490.4978   -251.68824    600.77937       21.977       21.977       21.977            0            0            0     661.7009    755.02633    385.61088    164.45383    391.82075    191.17958 
   43500    527.42045    -250.7927    828.64067       21.977       21.977       21.977            0            0            0    754.50539    641.79443    1089.6222    -283.4373   -560.21336   -366.84109 
   44000    561.93877   -251.82583    658.42363       21.977       21.977       21.977            0            0            0    -140.0217    1114.9179    1000.3747   -229.36842   -228.61031    399.33421 
   44500    510.89476   -252.88707    229.93538       21.977       21.977       21.977            0            0            0   -178.24419   -203.72996    1071.7803   -73.292771    282.35483    424.01358 
   45000    481.68731    -251.4007    770.21347       21.977       21.977       21.977            0            0            0    827.05836    330.80399    1152.7781   -560.54528    690.32419   -410.01477 
   45500    488.58988   -251.12853    759.62989       21.977       21.977       21.977            0            0            0    556.89965    1408.5364    313.45357   -406.24599    39.473615   -799.01359 
   46000    532.70236   -251.16259    597.04465       21.977       21.977       21.977            0            0            0    -151.6856    1083.1648    859.65473   -342.08384   -421.56695   -596.68312 
   46500    504.18809   -250.56363    861.24413       21.977       21.977       21.977            0            0            0    1535.8684    90.535137    957.32883   -96.613403   -517.20406   -491.62665 
   47000    511.93954   -252.52585    411.75379       21.977       21.977       21.977            0            0            0    138.18951    421.38004    675.69183    867.73682    568.20605    7.1095698 
   47500    496.18646   -250.58057    1038.2128       21.977       21.977       21.977            0            0            0    606.15871    1638.4992    869.98055     374.9742   -818.88131   -913.93387 
   48000    491.00237   -251.11407    802.59909       21.977       21.977       21.977            0            0            0    242.90089     780.3502    1384.5462    478.20229    356.04552   -96.612131 
   48500     511.4394   -252.24822    523.54264       21.977       21.977       21.977            0            0            0     862.8274   -44.253594    752.05412    450.50211   -534.49782     71.37355 
   49000     520.4794   -250.89465    890.89658       21.977       21.977       21.977            0            0            0    249.80932    1542.1813    880.69915   -336.47401     770.2724   -315.26971 
   49500    457.10492   -253.04441   -110.54797       21.977       21.977       21.977            0            0            0   -1546.4264    241.36114    973.42138    323.89423   -45.640463   -121.70986 
   50000    493.20185   -252.81509    211.54734       21.977       21.977       21.977            0            0            0    160.22173    28.490764    445.92952    561.72929     404.7937    277.88076 
   50500    498.39184   -251.42484     455.4796       21.977       21.977       21.977            0            0            0   -29.245907    651.29643    744.38827    737.76628   -151.39606   -238.56838 
   51000    527.46389    -250.6148    1069.7659       21.977       21.977       21.977            0            0            0    1500.0342    192.95384    1516.3096    112.16024    1042.7443    528.41793 
   51500    467.48726   -252.62742    161.22343       21.977       21.977       21.977            0            0            0   -594.78663   -36.017149    1114.4741    92.203129    488.88036   -320.40104 
   52000    558.02131   -250.42074    1222.4163       21.977       21.977       21.977            0            0            0    1910.2516    234.84995    1522.1473    758.51867   -169.56424     171.0331 
   52500    472.50008   -251.41696    343.81793       21.977       21.977       21.977            0            0            0    882.27634   -317.55077    466.72824   -362.60277   -388.42344    3.2905339 
   53000    530.20952   -251.29491    941.45942       21.977       21.977       21.977            0            0            0    454.96671     1203.015    1166.3966   -199.75049      -371.73    744.66529 
   53500    469.98344    -250.6181    853.92399       21.977       21.977       21.977            0            0            0    1511.9049    1023.1369    26.730073    246.97199    228.24414   -41.772049 
   54000    459.87123   -250.56836    893.19182       21.977       21.977       21.977            0            0            0    737.85108    788.83103    1152.8933    553.23628     436.6037    594.11915 
   54500    505.40097   -251.74489    475.06961       21.977       21.977       21.977            0            0            0    606.15231   -55.453932    874.51045   -28.155785   -43.676817    798.61634 
   55000    519.60278   -251.86429    617.27926       21.977       21.977       21.977            0            0            0    1146.8133    102.15937    602.86511    -122.6419   -47.833962    810.30927 
   55500    581.40807   -251.79564    758.05983       21.977       21.977       21.977            0            0            0    1285.4566    603.84037    384.88251   -880.34916    801.08508    595.18306 
   56000    540.47778   -252.29375    390.66291       21.977       21.977       21.977            0            0            0     560.2383    93.051561    518.69888   -133.29557     682.2311    379.84279 
   56500    499.21241   -250.74283    988.59363       21.977       21.977       21.977            0            0            0    1704.9682    814.17149    446.64124    256.88129    76.806571      -135.65 
   57000    503.10018   -252.82825    227.22467       21.977       21.977       21.977            0            0            0    225.14144    533.18969   -76.657137   -281.05077   -700.44399   -186.71849 
   57500    513.13529   -251.71012    831.41854       21.977       21.977       21.977            0            0            0    1232.5894    347.12715    914.53906   -106.75562    -1159.652     534.8084 
   58000    500.28018   -250.73985    820.83408       21.977       21.977       21.977            0            0            0    736.42442    757.84131    968.23652    33.631281    208.27499   -243.15499 
   58500    500.29682   -250.93117    983.23049       21.977       21.977       21.977            0            0            0    1840.2734     347.5054    761.91265   -227.12864   -245.18723    975.46397 
   59000    484.73862   -251.14607    793.71018       21.977       21.977       21.977            0            0            0    1405.0819    173.71111    802.33749   -491.80683    493.13387    278.19709 
   59500    492.39008   -250.87119    711.84775       21.977       21.977       21.977            0            0            0    2054.3501    73.042164    8.1509699   -142.50121    137.74733    199.18657 
   60000    507.10931   -251.35586    827.93843       21.977       21.977       21.977            0            0            0    1926.8314    1057.3744   -500.39054    197.75601    84.491528   -73.988457 
   60500     508.4211   -251.11122    815.51277       21.977       21.977       21.977            0            0            0    530.04472    443.51432    1472.9793   -298.14537    132.10908    837.06332 
   61000    502.86777   -251.94757    503.61759       21.977       21.977       21.977            0            0            0    804.65627    132.97567    573.22084    29.147082   -440.84353    371.71996 
   61500    442.02864   -252.59087    329.11894       21.977       21.977       21.977            0            0            0   -144.29337   -89.080198    1220.7304   -113.85213    695.29803   -275.27309 
   62000     549.3285   -252.10078    565.61376       21.977       21.977       21.977            0            0            0    325.25419    466.62164    904.96545   -278.73689   -6.0549584    429.07971 
   62500    544.83979   -251.73578     621.3665       21.977       21.977       21.977            0            0            0    797.19563     1172.623   -105.71913   -449.79453    629.25222    39.578259 
   63000    537.24333   -252.53068     697.0674       21.977       21.977       21.977            0            0            0    529.59469   -29.002156    1590.6097   -107.28449    390.34933    353.58765 
   63500    482.85921   -251.06884    644.98992       21.977       21.977       21.977            0            0            0    319.87002    1473.5642    141.53555   -476.41623   -26.142942   -226.68561 
   64000    482.34807   -251.15436     637.0608       21.977       21.977       21.977            0            0            0    1461.5919    30.890477    418.69998    769.21766   -484.38203    577.90809 
   64500    506.47626   -250.61927    1000.5381       21.977       21.977       21.977            0            0            0    678.08189    1090.5198    1233.0125    366.76392    66.768215   -244.67642 
   65000    550.35452   -251.66275    736.68901       21.977       21.977       21.977            0            0            0    775.68187    77.937026    1356.4481   -175.35761    556.89014    213.54942 
   65500    522.82441   -251.52592    769.27118       21.977       21.977       21.977            0            0            0    1157.2345     1543.384   -392.80497    422.09496   -412.54115   -399.01091 
   66000    500.99344   -251.58803    630.40528       21.977       21.977       21.977            0            0            0   -295.30716    1465.1552    721.36782   -521.89529     174.7477   -375.63081 
   66500    504.25232   -252.52111    398.02333       21.977       21.977       21.977            0            0            0    886.33534    551.71079   -243.97613   -645.89422     114.0447   -80.562118 
   67000     479.5469   -252.13752    435.35429       21.977       21.977       21.977            0            0            0    978.60311   -304.72894    632.18871    66.216821   -122.89421   -243.54391 
   67500    487.48673   -251.35491    912.98545       21.977       21.977       21.977            0            0            0    654.92819    2050.5698    33.458331   -6.7512331   -896.04227    -267.3077 
   68000    516.32915    -251.1758     901.5289       21.977       21.977       21.977            0            0            0    523.16721    1618.8883    562.53121   -274.54135    -153.9169   -482.09668 
   68500     477.5145    -251.4221    757.00975       21.977       21.977       21.977            0            0            0      596.251    850.03343    824.74482    265.49349   -164.24117    88.353074 
   69000    466.30606   -249.81771    1207.0191       21.977       21.977       21.977            0            0            0    398.95697    1380.6007    1841.4997   -298.25526   -162.25571   -551.63346 
   69500    496.46695   -251.46667    640.32927       21.977       21.977       21.977            0            0            0    228.60958    603.36571    1089.0125    156.22264   -198.21394    105.58942 
   70000    526.76439   -251.50888    896.57398       21.977       21.977       21.977            0            0            0    741.02948    1663.5185    285.17401    89.025486    -318.4115    33.411644 
   70500    488.48949   -251.02806     590.1992       21.977       21.977       21.977            0            0            0    553.11969    847.48293    369.99496   -619.13977   -547.19008    262.89351 
   71000     474.4017   -250.76392    603.83154       21.977       21.977       21.977            0            0            0    6.4900647    825.09988    979.90466   -483.38708    1224.1082   -627.03676 
   71500    492.73306   -251.30807    600.37301       21.977       21.977       21.977            0            0            0    625.81553    1284.7151   -109.41163   -84.486628   -704.26229    17.231842 
   72000    496.78237   -252.15048    306.69122       21.977       21.977       21.977            0            0            0    899.66402   -31.545015    51.954653    202.07334   -209.04196   -523.30479 
   72500    526.89973   -252.31656     288.7995       21.977       21.977       21.977            0            0            0   -506.32756    525.01795     847.7081    229.27286     101.8469   -100.96056 
   73000    490.45229    -249.7963    1153.9726       21.977       21.977       21.977            0            0            0    377.68417    1694.3021    1389.9316    84.651381   -675.33468    -167.8422 
   73500     516.0907   -250.53714    931.91278       21.977       21.977       21.977            0            0            0     1462.693    1123.0648    209.98058    178.65878   -175.83454   -28.119823 
   74000    550.89882   -251.96404    577.09211       21.977       21.977       21.977            0            0            0    855.87543    865.17022    10.230681    65.836929    223.98355   -423.80975 
   74500    478.79589   -251.11322    623.50361       21.977       21.977       21.977            0            0            0    1139.8912    159.31791    571.30169   -265.29163    30.666931    647.97882 
   75000    518.03401   -250.76182    1015.6409       21.977       21.977       21.977            0            0            0    1862.3397    843.01278    341.57016    6.8642047    788.25013    243.80941 
   75500    467.30451   -251.96556      514.592       21.977       21.977       21.977            0            0            0    671.53038    737.75699    134.48863   -100.10296   -172.15974    115.31432 
   76000    502.38984   -253.02688    404.06962       21.977       21.977       21.977            0            0            0   -641.88969     468.1596     1385.939    767.12444    265.04692   -474.33434 
   76500    497.46009   -251.95363    429.87457       21.977       21.977       21.977            0            0            0    484.41192    923.94192   -118.73013   -865.86438   -95.268827    6.3768441 
   77000    507.62893   -251.51755     690.0291       21.977       21.977       21.977            0            0            0    1288.4404    706.81382    74.833117    535.41755   -389.87672    -532.2702 
   77500     462.9236   -252.81878    68.050938       21.977       21.977       21.977            0            0            0    1081.3515    299.67802   -1176.8767    71.600979   -505.66381    651.39473 
   78000    553.43313   -249.41122    1323.5799       21.977       21.977       21.977            0            0            0    685.25041     1499.261    1786.2282   -39.442011    246.81094   -200.78204 
   78500    517.27112   -251.49843    783.89557       21.977       21.977       21.977            0            0            0    1722.2101    557.85934    71.617254   -476.58476    101.96361    119.28814 
   79000    530.94354   -252.10129    649.84762       21.977       21.977       21.977            0            0            0    1101.2821     103.0342    745.22654   -14.326201   -467.63183   -569.79907 
   79500     520.4462   -251.19617    783.63179       21.977       21.977       21.977            0            0            0    681.79548    818.27711    850.82277   -390.50523    282.32115   -536.34993 
   80000    491.29563   -251.83288     569.3322       21.977       21.977       21.977            0            0            0   -208.36631    1550.5017    365.86125    613.47567   -1048.4224    548.61102 
   80500    523.54874   -250.67121    1052.1302       21.977       21.977       21.977            0            0            0     1397.999     548.9156    1209.4761    538.40376   -757.03602    77.694614 
   81000    514.71815   -250.71362    969.52349       21.977       21.977       21.977            0            0            0    1506.9329    1116.4484    285.18926    422.74791    703.82141   -191.38691 
   81500    518.68106   -252.43416    545.12159       21.977       21.977       21.977            0            0            0    322.25416    590.16272     722.9479   -196.73334    859.04749   -137.01865 
   82000    524.55586   -251.76463    843.71563       21.977       21.977       21.977            0            0            0    1274.8878    1071.4085    184.85059    388.49495   -474.59875    402.73765 
   82500    455.29656   -251.29899     538.9466       21.977       21.977       21.977            0            0            0    165.63223    598.49255    852.71503   -26.185902   -189.05721    6.9509274 
   83000    542.67573   -251.39671    693.84026       21.977       21.977       21.977            0            0            0    159.55531     519.4916    1402.4739    181.10691   -375.98295    -466.1064 
   83500    492.89262   -251.45581     546.7897       21.977       21.977       21.977            0            0            0    901.96521   -168.88387    907.28776   -504.01629   -324.82465    499.33166 
   84000    496.47822   -253.68153    30.113622       21.977       21.977       21.977            0            0            0     466.8768    304.63616    -681.1721   -398.59304    83.495262    258.95365 
   84500    527.81686   -251.43831    900.61485       21.977       21.977       21.977            0            0            0    437.98758    846.46347    1417.3935    335.26472    248.95179   -419.38186 
   85000    535.45381   -251.71902    812.19019       21.977       21.977       21.977            0            0            0    1025.6497    1693.1869   -282.26596    762.04267   -170.29447    221.70886 
   85500     546.2913   -249.95087      1318.64       21.977       21.977       21.977            0            0            0    1348.0581    1316.5302    1291.3317   -79.707014   -9.6896955    295.34655 
   86000    481.72937   -251.94831    435.52357       21.977       21.977       21.977            0            0            0    797.77208    438.43909    70.359547   -164.86696    577.03377   -592.42057 
   86500    490.07271   -251.93183    417.61495       21.977       21.977       21.977            0            0            0     587.5792    169.41784    495.84782    218.64058    166.30691   -153.93364 
   87000      553.867   -250.20781    1392.2759       21.977       21.977       21.977            0            0            0    2113.9671    856.28174     1206.579   -5.8468658    457.12096    811.11187 
   87500    495.04202   -250.70049    881.11129       21.977       21.977       21.977            0            0            0    952.86597    286.01046    1404.4574    82.219007   -440.55373    89.075407 
   88000    529.08771   -251.08013    817.08392       21.977       21.977       21.977            0            0            0    253.82708    1240.5211    956.90356    68.856049   -1233.8102   -203.54904 
   88500    447.73298   -251.06575    594.39746       21.977       21.977       21.977            0            0            0    297.13863    867.44722    618.60653    140.07206   -883.05761    885.17359 
   89000    515.43924   -252.22479     550.2551       21.977       21.977       21.977            0            0            0    411.29657    719.12972    520.33901    326.72804    202.66631   -360.62476 
   89500    496.89197    -251.0486    914.25807       21.977       21.977       21.977            0            0            0    1314.3339    1631.3013   -202.86093   -262.20934    473.30434    277.04764 
   90000    505.95735   -250.78481    743.42986       21.977       21.977       21.977            0            0            0    1320.4844   -44.042811    953.84798    104.50374   -208.39805   -566.90166 
   90500    529.29454   -249.69887    1210.0042       21.977       21.977       21.977            0            0            0      1243.59    1704.1379    682.28478    468.43184    38.330664    94.949969 
   91000    507.04183   -252.03495    548.27058       21.977       21.977       21.977            0            0            0   -226.87483    646.00612    1225.6805    -341.6647   -539.41547    412.07877 
   91500     454.4925   -251.88299    126.19444       21.977       21.977       21.977            0            0            0   -96.756771    736.87862   -261.53853   -140.30661    476.08098   -800.13751 
   92000    478.39156     -250.245    1159.0817       21.977       21.977       21.977            0            0            0    776.58046    994.20334    1706.4614    59.589077   -772.06814    130.64083 
   92500    516.50385   -250.54456    1083.7498       21.977       21.977       21.977            0            0            0    941.92936    925.08959    1384.2303   -419.11656    -486.7831   -391.28764 
   93000    500.29548    -250.8637    843.30372       21.977       21.977       21.977            0            0            0    1070.4044    439.34673      1020.16    -189.8612     805.4993    191.33611 
   93500    519.90882   -251.31107    735.22786       21.977       21.977       21.977            0            0            0    363.13668     1036.755    805.79193    654.95803   -31.728801    262.95099 
   94000    491.80511   -250.32586    746.98707       21.977       21.977       21.977            0            0            0   -520.42819    898.88388    1862.5055   -429.54887   -279.93533   -1350.6752 
   94500    488.24147   -252.76029    383.80057       21.977       21.977       21.977            0            0            0    560.25073    565.41504     25.73595    1057.8933    68.539326   -60.919235 
   95000    529.78925   -253.20069    308.44184       21.977       21.977       21.977            0            0            0    890.09991    638.20471   -602.97909   -443.78229   -580.47878    47.324966 
   95500    525.18032   -251.80155    542.48618       21.977       21.977       21.977            0            0            0    368.74209    964.61579    294.10068   -322.44885   -102.54701   -513.95171 
   96000    545.02317   -250.14976    1158.1539       21.977       21.977       21.977            0            0            0    172.56632    2594.2143    707.68115   -413.29618    -123.7446    103.35598 
   96500    516.35498   -252.17835    398.06324       21.977       21.977       21.977            0            0            0    916.70069   -30.401824    307.89087    206.23939   -146.41412    400.92347 
   97000    527.34364   -251.94399    549.68372       21.977       21.977       21.977            0            0            0    27.037944    1424.4152    197.59797    594.71324    551.33677    80.506741 
   97500    443.49824   -249.62361    1102.9545       21.977       21.977       21.977            0            0            0    1391.1057    1266.9526    650.80512   -309.71921   -169.23748   -479.85125 
   98000    508.70336   -251.91917    366.08769       21.977       21.977       21.977            0            0            0    1190.1392    238.76544   -330.64153   -540.83408    638.56938    -78.88462 
   98500    482.87374   -251.11824    641.27099       21.977       21.977       21.977            0            0            0    856.36554   -134.52767    1201.9751   -145.49403    348.60092   -61.831137 
   99000    484.78858   -250.61644    858.46577       21.977       21.977       21.977            0            0            0    878.75823    1125.9072    570.73193    319.01305   -168.86379    207.50696 
   99500     544.5203   -250.71244    1092.9219       21.977       21.977       21.977            0            0            0    1428.8512    879.78107    970.13338    335.34546   -494.35567   -376.46646 
  100000    488.37848   -249.96824    1026.9434       21.977       21.977       21.977            0            0            0    773.28111    1699.5352      608.014     37.54712   -381.00614   -855.95611 
  100500    494.69996   -251.53509     602.3799       21.977       21.977       21.977            0            0            0    573.21475    389.83082    844.09413    933.38978    382.65043    852.01129 
  101000    488.78984    -252.2674    264.52799       21.977       21.977       21.977            0            0            0    638.25687    240.96085    -85.63376   -375.25179    -44.44026    346.42431 
  101500    472.57158   -250.26596    986.86314       21.977       21.977       21.977            0            0            0    1203.1162    1134.6647    622.80851   -520.68146    265.49433    392.89422 
  102000    520.48458   -253.17339      274.525       21.977       21.977       21.977            0            0            0    662.03075    717.02065    -555.4764   -298.09809    58.570974   -151.74822 
  102500    509.61365   -251.42338    812.06325       21.977       21.977       21.977            0            0            0    1435.2366    411.90679    589.04638    114.46222    672.21309   -519.46034 
  103000    506.58302   -250.10052    1034.3751       21.977       21.977       21.977            0            0            0    1342.3073    986.33725    774.48065   -315.84604   -149.24521    418.03625 
  103500     492.8387   -251.92265    477.14862       21.977       21.977       21.977            0            0            0    288.44863    777.84222    365.15499    54.555441    527.01309   -297.85359 
  104000    519.58574   -251.71244    730.13732       21.977       21.977       21.977            0            0            0    421.17611    509.11432    1260.1215    1046.5891    470.13248   -45.729513 
  104500    504.23398   -251.14497    720.26631       21.977       21.977       21.977            0            0            0    457.19109    1138.0328    565.57499   -26.917631   -263.41288   -105.54753 
  105000    431.47839   -250.88659    850.72396       21.977       21.977       21.977            0            0            0    644.98098    1074.4275    832.76343    413.43062   -1016.2563   -95.879249 
  105500    482.65224    -251.2329    702.92725       21.977       21.977       21.977            0            0            0     327.4988    451.89016    1329.3928   -482.98545    109.24517    388.71251 
  106000    499.95398   -250.77509    733.34195       21.977       21.977       21.977            0            0            0    509.66332    892.35535    798.00719    66.442205    379.73254   -444.79968 
  106500    489.28503   -251.09731    583.96543       21.977       21.977       21.977            0            0            0    576.01456   -48.221251     1224.103   -571.60428   -462.78782    81.544746 
  107000    485.77417   -250.74319    1000.5219       21.977       21.977       21.977            0            0            0    2509.0918    632.10365   -139.62961    381.13145   -341.78215     540.3716 
  107500    474.41368   -251.45512    569.32586       21.977       21.977       21.977            0            0            0    925.99076    511.99883    269.98799    501.51474    313.00547    29.837232 
  108000    554.76628   -250.57052    1031.7952       21.977       21.977       21.977            0            0            0    1044.6362    432.21238     1618.537    557.02866   -105.18586   -51.333001 
  108500    489.89949   -252.59566    36.022111       21.977       21.977       21.977            0            0            0    1070.7772   -73.793992   -888.91687   -81.418026   -146.50535     117.1725 
  109000    488.54164   -250.97365    712.21296       21.977       21.977       21.977            0            0            0    2304.6063    -363.9551    195.98772   -601.23277   -104.16969   -212.05234 
  109500    501.10066   -252.05157    409.68864       21.977       21.977       21.977            0            0            0    437.50413     1203.844   -412.28221    373.11589    398.17928    -626.1957 
  110000     504.9523   -251.51287    763.83088       21.977       21.977       21.977            0            0            0    296.94019    993.88981    1000.6626    453.71248    329.19734    214.25069 
  110500    521.81447   -251.46958    698.28057       21.977       21.977       21.977            0            0            0    825.99304    440.35673    828.49195   -1044.2019    463.68661    20.183017 
  111000     498.8884   -252.32672    340.85678       21.977       21.977       21.977            0            0            0    106.93173    1002.7879   -87.149266    -24.75627    -2.856609    198.37219 
  111500    485.82795   -251.11627    929.84155       21.977       21.977       21.977            0            0            0    767.00403    1593.1487    429.37192   -126.73734    78.465187     509.6608 
  112000    465.67871   -250.54646    956.67084       21.977       21.977       21.977            0            0            0    1027.7518    754.93735    1087.3234    61.640251   -55.788922   -657.94192 
  112500     462.5151   -251.79827    622.37411       21.977       21.977       21.977            0            0            0    837.76162    402.00267    627.35805   -625.07813    479.73735    704.44657 
  113000    526.91133   -253.02288    188.54306       21.977       21.977       21.977            0            0            0    407.98613    173.82903   -16.185978   -567.26326    1220.8322   -113.96083 
  113500    492.37019   -251.33888     738.1561       21.977       21.977       21.977            0            0            0    962.45464    513.19194    738.82171   -330.50259   -549.59341   -281.07061 
  114000    488.18741   -252.29754    242.83224       21.977       21.977       21.977            0            0            0    470.45911    451.21928   -193.18166   -594.88972   -82.018564   -112.18787 
  114500    493.35726   -251.67783    507.91029       21.977       21.977       21.977            0            0            0   -131.79024     1045.501    610.02016    -115.7442    -739.3285    -444.4449 
  115000    520.64056   -251.29439    755.83892       21.977       21.977       21.977            0            0            0    962.92312    699.75962    604.83403    67.630899    156.24364   -497.21763 
  115500    503.49286   -251.99229    373.88608       21.977       21.977       21.977            0            0            0    577.29685    1324.3407    -779.9793   -497.48841    601.86047   -764.65998 
  116000    494.90181   -251.11035    755.97809       21.977       21.977       21.977            0            0            0    1082.0863    861.47934    324.36868     150.3846    330.23347    648.79129 
  116500    531.35203   -251.19378    954.07611       21.977       21.977       21.977            0            0            0    1070.1818     1069.963    722.08361   -167.59885   -188.99379   -351.04442 
  117000    484.96605   -251.93053    469.25027       21.977       21.977       21.977            0            0            0    146.59111    552.71031    708.44938    -303.8696     871.4451    502.37384 
  117500    488.95779   -251.84373    418.55699       21.977       21.977       21.977            0            0            0    1376.5255    265.65066   -386.50518    236.09416     360.3373   -580.09635 
  118000    496.26922   -249.44842    1173.7504       21.977       21.977       21.977            0            0            0    1569.4745    492.45266     1459.324    313.97419    623.82201    1.2026104 
  118500    524.68295   -251.76554    728.49887       21.977       21.977       21.977            0            0            0   -480.50995    301.22959     2364.777    627.55386    1174.1442   -1343.6058 
  119000    530.53847   -253.14987    149.27747       21.977       21.977       21.977            0            0            0   -57.327931    277.83104    227.32931   -391.73527   -552.57424    -29.86104 
  119500    563.45792   -250.56563    977.87441       21.977       21.977       21.977            0            0            0    1569.2269     1314.694     49.70237   -9.3212991     -1133.13     168.2584 
  120000    473.78088   -250.53819     798.2343       21.977       21.977       21.977            0            0            0     1122.563    532.64449     739.4954    4.1852205   -217.46477    88.420321 
  120500    521.11407   -252.27702    424.99777       21.977       21.977       21.977            0            0            0    1152.9554    439.18559   -317.14766   -678.04886    50.713231    586.30628 
  121000     501.9693   -249.44997    1512.9353       21.977       21.977       21.977            0            0            0     1422.683    2068.4626    1047.6602   -851.82662   -144.03575    420.32265 
  121500    531.43504   -252.26476    617.58993       21.977       21.977       21.977            0            0            0     1145.486    731.28192   -23.998192    103.66771   -750.32754    179.37195 
  122000    589.71344   -251.99069    878.46412       21.977       21.977       21.977            0            0            0    478.38255    427.80086    1729.2089   -43.598314     380.9537    740.47487 
  122500    497.28429    -251.2876    698.11376       21.977       21.977       21.977            0            0            0    593.69193     949.5754    551.07396   -689.89025    -527.9922    459.51036 
  123000    495.23551   -251.65742    745.64838       21.977       21.977       21.977            0            0            0    565.96348    473.26933    1197.7123   -366.09977    656.93041   -288.33661 
  123500    524.42496   -250.60154    895.48968       21.977       21.977       21.977            0            0            0    1835.9103    192.69876    657.85999    553.58591    257.88341    50.927661 
  124000    531.16904   -251.80976    486.13023       21.977       21.977       21.977            0            0            0    1016.7124    215.51477    226.16353   -1260.4954    80.672873    875.72725 
  124500    478.86207   -252.52291    205.25809       21.977       21.977       21.977            0            0            0    104.32439    68.804496    442.64539    222.64032   -317.50805    158.91123 
  125000    490.07207   -251.68495    654.19744       21.977       21.977       21.977            0            0            0    964.06049    592.43779    406.09404   -260.29337    239.20359   -5.9547459 
  125500    560.76953    -250.4012    1200.6264       21.977       21.977       21.977            0            0            0    980.08765    491.70768    2130.0837    782.73776     424.5922   -272.34093 
  126000     504.7789   -251.44928    631.37022       21.977       21.977       21.977            0            0            0    577.43698     1219.586    97.087674     37.31316    583.83848    876.02285 
  126500    466.11906   -251.08758    654.47596       21.977       21.977       21.977            0            0            0    125.66695    914.11118    923.64976   -390.91463    -97.44704    15.709117 
  127000    463.44433   -250.63107    710.07831       21.977       21.977       21.977            0            0            0    799.99319    1257.5881    72.653596    379.96794      653.033   -698.97482 
  127500    487.42759    -250.1334    1194.8899       21.977       21.977       21.977            0            0            0    1031.3621    1956.3071    597.00034    141.94767   -172.44297    276.23399 
  128000    507.37942   -251.48249    755.54997       21.977       21.977       21.977            0            0            0    397.32531    670.95754    1198.3671    155.09783   -157.61001    402.64428 
  128500       565.84   -251.38244    917.81619       21.977       21.977       21.977            0            0            0    1510.7395    826.49593    416.21313   -288.44212    497.98311    -598.8759 
  129000    502.39871   -251.84656      610.147       21.977       21.977       21.977            0            0            0    414.58814    687.95373    727.89914    377.69348   -631.65782   -464.44937 
  129500    520.15249   -252.18433     772.0005       21.977       21.977       21.977            0            0            0     643.6088    794.71152    877.68119    905.52955    118.31862    201.54486 
  130000    496.45143   -252.91021    243.76884       21.977       21.977       21.977            0            0            0    462.89701    520.61383   -252.20431    321.94938    180.22167     187.4592 
  130500    528.24899   -250.82549    905.43621       21.977       21.977       21.977            0            0            0    196.72761    1258.1542    1261.4268   -242.42745    396.20818   -660.53036 
  131000     507.3492   -252.27097    259.41247       21.977       21.977       21.977            0            0            0    320.52241     241.7552     215.9598   -186.02182    2.6122311   -458.98338 
  131500    488.81189   -253.14503    198.30565       21.977       21.977       21.977            0            0            0    430.73342   -40.853836    205.03737   -267.01548   -323.07288   -360.23587 
  132000     483.2457   -252.97185   -5.0044914       21.977       21.977       21.977            0            0            0   -120.78068   -296.65857    402.42577   -559.45543    983.96102    7.8783544 
  132500     568.6598    -249.9075    1439.0557       21.977       21.977       21.977            0            0            0      1593.13    1779.3233    944.71394    27.762673    631.59844    483.61654 
  133000    534.54789   -251.53439    714.47696       21.977       21.977       21.977            0            0            0    504.19273    647.96902    991.26911    268.97005    81.646143   -146.74763 
  133500    520.20085   -251.43066    717.54935       21.977       21.977       21.977            0            0            0    445.21491    264.56811     1442.865    325.13933     222.9788     163.3871 
  134000    471.72784   -252.20563    395.99855       21.977       21.977       21.977            0            0            0    249.84667    1130.8095   -192.66048    110.32524   -241.69834   -384.70684 
  134500    473.85399   -251.13507    812.67951       21.977       21.977       21.977            0            0            0   -163.93703    932.40537    1669.5702    495.94262   -370.23763   -96.096809 
  135000     507.9272   -253.12434      82.4096       21.977       21.977       21.977            0            0            0    1059.3644   -301.11848   -511.01716   -602.12376   -136.60693    260.57205 
  135500    502.33466   -250.86415    723.25039       21.977       21.977       21.977            0            0            0    566.84957    483.72568    1119.1759   -247.95196    515.75719    415.16347 
  136000    516.79272   -251.24926    833.97142       21.977       21.977       21.977            0            0            0    1286.2386     625.8739    589.80175    421.88529    262.33675    441.67285 
  136500    465.22874   -251.76814    333.59999       21.977       21.977       21.977            0            0            0   -38.478372    30.734033    1008.5443    790.86498   -3.4202375    175.08373 
  137000     519.2574   -251.81714    883.93253       21.977       21.977       21.977            0            0            0    -203.4273    1025.2187    1830.0062    518.51161    582.30561   -954.68218 
  137500    539.30713   -250.59921    924.58833       21.977       21.977       21.977            0            0            0    345.10503    1276.9709     1151.689   -50.811783   -699.93817    469.81915 
  138000    525.44919   -250.89478    862.70144       21.977       21.977       21.977            0            0            0    1393.0755    1343.0485   -148.01975     342.1731   -222.02222   -99.989447 
  138500     507.2781   -251.99243    730.40452       21.977       21.977       21.977            0            0            0    382.59098    1390.4923     418.1303   -621.44775   -19.804229    125.03189 
  139000    535.24931   -250.99838    826.47764       21.977       21.977       21.977            0            0            0    1310.7599   -340.38923    1509.0622    326.01892    734.13629     34.06984 
  139500    513.44659    -252.9617    294.31783       21.977       21.977       21.977            0            0            0    860.95108    391.38793   -369.38553    129.68633   -152.88812     449.3367 
  140000    546.90695   -252.32899    562.42351       21.977       21.977       21.977            0            0            0   -59.716184    1266.4705     480.5162   -402.07869   -126.03381     542.7077 
  140500    515.39302   -251.06984    984.52156       21.977       21.977       21.977            0            0            0     978.6794    351.92356    1622.9617     63.75158    170.94416   -425.76465 
  141000    461.83463   -251.56488    523.33426       21.977       21.977       21.977            0            0            0     297.7734    850.98059    421.24879    304.39492   0.94656925    310.96324 
  141500    484.40733     -252.004    387.63539       21.977       21.977       21.977            0            0            0    551.95877    287.63923    323.30817    2.7619897   -1084.5012   -27.830868 
  142000    499.67659   -250.74864    732.31236       21.977       21.977       21.977            0            0            0    989.51723   -312.21332    1519.6332    58.346407     662.1979      59.0436 
  142500    476.10115   -250.32143    841.70748       21.977       21.977       21.977            0            0            0    598.97058    669.53177    1256.6201    10.271731   -83.846037   -10.414637 
  143000    525.34818   -252.03573    614.96518       21.977       21.977       21.977            0            0            0    723.22092    1225.4245   -103.74983    143.30849    207.96721      -439.85 
  143500    460.55184   -251.66496     482.0655       21.977       21.977       21.977            0            0            0    971.42431    141.00038    333.77181   -491.15951    142.60612    29.125657 
  144000    492.79701    -251.6047     190.0998       21.977       21.977       21.977            0            0            0    698.12591    210.46303   -338.28953   -93.738958   -372.27028    345.46111 
  144500    479.66372   -249.63807    999.19877       21.977       21.977       21.977            0            0            0    1177.3374    663.76659    1156.4923    1207.9145    298.57027   -242.73287 
  145000    508.87731   -252.18738    270.24082       21.977       21.977       21.977            0            0            0     636.2984   -704.03013    878.45418   -836.39761    200.88269    560.23232 
  145500    528.67695   -251.92344    678.36736       21.977       21.977       21.977            0            0            0     593.9493    836.12767    605.02513   -82.495856      249.056   -573.01208 
  146000    492.49519   -252.05329    425.45719       21.977       21.977       21.977            0            0            0    89.161165    698.54302    488.66739    471.38311     109.0984   -238.31799 
  146500    479.99833   -251.66383    439.79833       21.977       21.977       21.977            0            0            0    1197.5871    382.85996   -261.05205   -578.54268   -114.69283    663.59503 
  147000    503.66673   -252.61549    252.59174       21.977       21.977       21.977            0            0            0   -171.12718    136.31866    792.58373    506.51321   -11.128492    229.16414 
  147500    489.38479   -250.80105     658.0425       21.977       21.977       21.977            0            0            0   -170.37885    1718.8623    425.64404   -23.785505    -704.4387   -288.80845 
  148000    462.07783   -251.80893    324.15974       21.977       21.977       21.977            0            0            0    424.18814    635.29228   -87.001212    28.268683   -30.692575   -393.76159 
  148500    492.67995   -250.05576    1146.3009       21.977       21.977       21.977            0            0            0    1090.5475    786.71052    1561.6447    547.51738    404.74327   -426.43543 
  149000    472.34923   -252.13608    197.10321       21.977       21.977       21.977            0            0            0   -354.26525    603.86699    341.70788     238.2261    547.50545    291.60795 
  149500    516.15222   -251.94059    632.67813       21.977       21.977       21.977            0            0            0    1123.7751    131.65897    642.60029   -67.936203   -278.89494     234.1225 
  150000    466.90584   -252.33268    326.04877       21.977       21.977       21.977            0            0            0    1276.0831    231.94354   -529.88032   -209.57418   -174.41096   -914.36071 
  150500    493.79614   -251.36128    755.36995       21.977       21.977       21.977            0            0            0    1145.1439    1312.7824   -191.81646   -965.36132    296.14211   -153.85006 
  151000    500.97234   -252.51789    400.56185       21.977       21.977       21.977            0            0            0   -26.300136    736.27325    491.71243    172.98073   -41.780099    123.24171 
  151500    551.94287   -252.24657    730.33665       21.977       21.977       21.977            0            0            0   -312.77338    1484.8845    1018.8988   -15.654902    31.718011    151.05984 
  152000    510.93113   -251.65725    672.07453       21.977       21.977       21.977            0            0            0    359.51122    43.400419     1613.312   -388.17995    440.56892    275.03764 
  152500    508.98177   -252.21345     635.5843       21.977       21.977       21.977            0            0            0    165.33885    -44.76558    1786.1796    -8.551228    -64.97723    635.25823 
  153000     515.3944    -252.9332    214.38598       21.977       21.977       21.977            0            0            0   -1.0097272    239.68113    404.48653    84.967703   -351.47152   -184.46101 
  153500    491.51818   -249.55198    1156.3228       21.977       21.977       21.977            0            0            0    1848.8847    3.2381161    1616.8455   -849.80237    980.74039   -134.72659 
  154000     479.8711    -251.4038    541.51861       21.977       21.977       21.977            0            0            0    460.57632   -221.77919    1385.7587    341.69302   -210.00445     -439.485 
  154500    489.82011   -253.46431   -22.353653       21.977       21.977       21.977            0            0            0   -78.519867   -566.51995    577.97886   -197.96865   -541.91812   -393.81357 
  155000    487.54144   -250.97751     757.5072       21.977       21.977       21.977            0            0            0    1364.9049    455.47266    452.14403   -627.21475    -64.01798    -760.3172 
  155500    512.94848   -251.90618    528.26437       21.977       21.977       21.977            0            0            0    872.09089    420.95956    291.74264   -606.87104   -236.13776    32.660438 
  156000    426.45134   -250.28255    864.11016       21.977       21.977       21.977            0            0            0    888.08727    962.40478    741.83843    -781.7749    331.16438    335.23234 
  156500    479.39027   -250.90538    849.13498       21.977       21.977       21.977            0            0            0    1340.5197    358.26603    848.61921    94.259802   -431.94052   -167.24003 
  157000    477.70497   -250.81279    837.40535       21.977       21.977       21.977            0            0            0     1079.958    415.10239    1017.1556    -428.9217    91.025881    266.03792 
  157500    561.92235     -250.944    771.43819       21.977       21.977       21.977            0            0            0     427.5408    1227.2877    659.48606    297.22332   -536.66166   -1021.6605 
  158000    509.36439   -253.29897    178.14786       21.977       21.977       21.977            0            0            0    40.357909    32.225334    461.86033    80.788657     144.7772    680.76122 
  158500     491.7966   -252.63271     337.4199       21.977       21.977       21.977            0            0            0   -482.52232     44.55093    1450.2311    21.224357   -875.71365    221.04922 
  159000    569.21827   -250.81939    1253.8179       21.977       21.977       21.977            0            0            0    2227.1187    587.08702    947.24791   -1151.1707   -409.61022    31.070242 
  159500    475.26303    -251.2995    638.88693       21.977       21.977       21.977            0            0            0    632.64784    706.79166    577.22129   -210.39631    456.12122    150.71129 
  160000    470.52288   -251.99516    437.64173       21.977       21.977       21.977            0            0            0    621.27484   -816.44651    1508.0969    554.82493     520.7527    779.12558 
  160500    484.18278   -251.96051    511.92907       21.977       21.977       21.977            0            0            0    979.96406    901.36362   -345.54048    23.941365    716.99313    607.28022 
  161000    511.66162   -251.79805     769.3202       21.977       21.977       21.977            0            0            0    1128.6656   -32.748674    1212.0437    26.861906    23.272809   -543.53186 
  161500    540.58742   -250.00785     1046.156       21.977       21.977       21.977            0            0            0    1323.2341     937.9039    877.32997   -236.43515   -896.47112   -680.33092 
  162000    543.47956   -252.65928    505.73659       21.977       21.977       21.977            0            0            0   -290.99695    1327.9961    480.21064   -162.59612    -805.3159    -265.3328 
  162500    522.90685   -252.15395    567.15521       21.977       21.977       21.977            0            0            0    293.03874    801.91385    606.51303    82.197669    -657.3868   -459.46097 
  163000    516.82142   -251.43555    736.97752       21.977       21.977       21.977            0            0            0    303.16833    1139.8594    767.90487     174.2213    423.23578   -243.64069 
  163500    504.53751    -251.2881    609.66313       21.977       21.977       21.977            0            0            0   -345.93102    668.17962    1506.7408    104.23907    457.89542   -270.12534 
  164000    482.16113   -251.09285    765.50187       21.977       21.977       21.977            0            0            0    1161.5112   -54.289385    1189.2838    345.94183   -69.781428    76.458432 
  164500    502.71829   -252.62866     300.1925       21.977       21.977       21.977            0            0            0    543.60723    215.57068     141.3996   -21.583957    76.259659    587.05275 
  165000    487.50805    -251.3711    584.70667       21.977       21.977       21.977            0            0            0   -580.63807    1561.1184    773.63967    136.60076   -64.243226    -301.4057 
  165500    508.84551   -251.92235    404.05078       21.977       21.977       21.977            0            0            0    213.12693    637.58896    361.43646    42.935289   -347.81234    54.517924 
  166000    550.14385   -250.34424    1219.1794       21.977       21.977       21.977            0            0            0    841.37817    1137.2757    1678.8844   -362.43282   -192.45413    417.96069 
  166500     454.3218   -252.92364    235.29975       21.977       21.977       21.977            0            0            0    576.21305    469.11442   -339.42823   -637.00917   -186.60491    471.92399 
  167000    492.10024   -252.27014    412.70454       21.977       21.977       21.977            0            0            0    732.48191    482.50313    23.128575    317.76442    343.05744     565.0249 
  167500    536.55307    -251.9336    573.86635       21.977       21.977       21.977            0            0            0    162.30659    36.813938    1522.4785   -132.56777    298.39496    295.95245 
  168000    481.42629   -250.37803    967.36624       21.977       21.977       21.977            0            0            0    1525.4182    1041.5812    335.09937    206.62859   -34.549662    319.74664 
  168500    547.54209   -252.57388    551.73093       21.977       21.977       21.977            0            0            0    176.87426    843.01388    635.30466   -721.05666   -380.38541   -950.21534 
  169000      476.943   -250.84725    802.00648       21.977       21.977       21.977            0            0            0    1061.0495    698.33068    646.63923   -1078.0184   -517.50947    289.11305 
  169500    501.77038   -251.21405    613.08606       21.977       21.977       21.977            0            0            0    1485.3985    998.96709   -645.10744   -188.66386  -0.83638566    -1159.249 
  170000    516.33688   -252.01016    612.16499       21.977       21.977       21.977            0            0            0    1342.8894    114.96208    378.64348     -128.797   -115.24513   -379.95711 
  170500    487.91744   -253.16332   -140.83116       21.977       21.977       21.977            0            0            0    102.60968   -154.51865    -370.5845    176.52893   -834.47796    26.693799 
  171000    523.88888   -251.24267    914.01565       21.977       21.977       21.977            0            0            0      666.961    2064.6979    10.388058    154.76143   -153.75513   -900.07829 
  171500    507.49915   -250.29717     1268.372       21.977       21.977       21.977            0            0            0    1364.7264    1579.2459    861.14359   -123.30664    1008.4289   -496.57066 
  172000     465.7797   -250.58219    843.07707       21.977       21.977       21.977            0            0            0    158.06118    983.98303     1387.187   -549.70249   -391.83556   -566.07103 
  172500     494.0501   -251.78749    509.22586       21.977       21.977       21.977            0            0            0    728.28287    1089.8154   -290.42071    89.588491    -170.6039    307.42704 
  173000    495.04361   -251.36547    763.03777       21.977       21.977       21.977            0            0            0    1208.0299    770.06237    311.02108    335.40996    446.42534   -525.85082 
  173500    559.36177   -251.79481    564.81051       21.977       21.977       21.977            0            0            0    838.90538    1148.4214   -292.89526   -138.57892   -329.34547   -478.80325 
  174000    513.44942   -251.23177    658.65342       21.977       21.977       21.977            0            0            0    959.35932    864.62233    151.97861    -354.1445    581.13424    585.68802 
  174500     531.2576   -252.58031    464.78416       21.977       21.977       21.977            0            0            0    263.37677    231.64695    899.32878   -45.260248   -915.02128    423.44878 
  175000    492.42147   -251.64262    626.84407       21.977       21.977       21.977            0            0            0    507.52568    344.85108    1028.1555    271.76839      551.857   -224.36912 
  175500    471.01853   -250.90763    726.52331       21.977       21.977       21.977            0            0            0    99.552236    862.29037    1217.7273      61.2491   -473.33708    236.62069 
  176000    473.90685   -251.49286    653.13198       21.977       21.977       21.977            0            0            0    1023.8024    1079.5081   -143.91453    633.89216   -21.966839    -306.0372 
  176500    522.78458   -251.79408    617.92229       21.977       21.977       21.977            0            0            0    234.11807    971.24526    648.40353    409.09581    724.90444   -224.24872 
  177000    481.49129   -251.82011    408.93572       21.977       21.977       21.977            0            0            0   -860.13582    1031.4852    1055.4577   -53.678731    757.57673   -45.647336 
  177500    502.59696   -251.61879    507.93043       21.977       21.977       21.977            0            0            0     1561.701    207.27521   -245.18491    646.21153   -132.74115   -224.09994 
  178000    486.80491   -250.69495    891.57572       21.977       21.977       21.977            0            0            0    1227.6984    1516.7147   -69.685936   -665.08006    -83.34177    338.64871 
  178500    505.61189   -250.97923    862.16509       21.977       21.977       21.977            0            0            0    227.32754    1152.3273    1206.8404    128.93527     607.2737    30.337386 
  179000    524.98472   -252.00375    681.55425       21.977       21.977       21.977            0            0            0    1183.5885    98.617802    762.45645   -181.04878    798.11174   -428.88931 
  179500    537.90363   -250.78466    1076.1623       21.977       21.977       21.977            0            0            0    1242.0322    470.52534    1515.9292   -483.47657    206.82003   -300.37186 
[...]
  454500    521.18306   -251.88318    620.51558       21.977       21.977       21.977            0            0            0    986.46675    381.70279    493.37721    478.98266    11.930289    332.34949 
  455000    496.45393    -250.2241    1263.9971       21.977       21.977       21.977            0            0            0    998.47965    2161.7567    631.75508     393.3497    180.36398   -346.33044 
  455500    473.39756   -251.24659    663.79666       21.977       21.977       21.977            0            0            0     1146.208     650.2731    194.90884   -404.40091    611.27174   -259.69787 
  456000    447.40424   -251.23338     591.6922       21.977       21.977       21.977            0            0            0     785.8922   -32.654225    1021.8386   -180.09526    531.98956   -349.20591 
  456500    469.92686   -252.28802    386.97752       21.977       21.977       21.977            0            0            0    282.93699   -53.441154    931.43673    276.34872      224.418    294.95341 
  457000    485.41015   -252.80797    268.96405       21.977       21.977       21.977            0            0            0    78.646306  -0.63201868    728.87786    308.50025   -346.54993    34.606405 
  457500    454.22405   -252.02384    99.827066       21.977       21.977       21.977            0            0            0   -311.40776   -64.384319    675.27328   -167.24805    593.16047   -87.623345 
  458000     473.2712   -251.81492    567.64245       21.977       21.977       21.977            0            0            0   -113.86557    1177.2831    639.50986    152.09198   -5.1263602     195.7261 
  458500     492.3719   -252.40907     371.1095       21.977       21.977       21.977            0            0            0    1016.5889   -53.074825    149.81447    19.658017    63.524389     53.09573 
  459000    535.32785    -251.2575    821.88899       21.977       21.977       21.977            0            0            0    853.88582    463.37404    1148.4071    459.33697    -833.9369   -424.46351 
  459500    508.51722   -251.44997    559.93612       21.977       21.977       21.977            0            0            0    35.333968    1322.3895    322.08488    277.23196   -61.493321    25.797974 
  460000    528.50452   -250.91729    659.69223       21.977       21.977       21.977            0            0            0    403.54163    317.16409     1258.371    20.318765    315.71879   -576.51474 
  460500    465.22658   -250.98086    719.59729       21.977       21.977       21.977            0            0            0    667.94716    102.37101    1388.4737    227.18083    160.64603     89.88728 
  461000    560.94164   -250.21921    1082.7931       21.977       21.977       21.977            0            0            0    1521.3679     719.0362    1007.9751   -496.08483    156.55492    119.49971 
  461500    522.05926   -249.84859    1253.4013       21.977       21.977       21.977            0            0            0    1465.9433     1171.675    1122.5855   -922.31102    634.17376   -8.5338929 
  462000    546.93682   -250.50062    1034.4123       21.977       21.977       21.977            0            0            0    1517.3477     203.6992    1382.1899    475.20111   -789.55342   -16.645813 
  462500    513.43163   -252.79248    362.28432       21.977       21.977       21.977            0            0            0    517.48811   -84.538486    653.90334     80.90246   -339.30172   -940.97988 
  463000    517.10764   -251.86262    623.01869       21.977       21.977       21.977            0            0            0    1256.1942    838.14838   -225.28648   -503.64765    401.20029   -502.97035 
  463500    523.35135   -251.46521    650.37451       21.977       21.977       21.977            0            0            0    365.90634    28.997019    1556.2202    172.13549   -347.44882    -300.6778 
  464000    534.91647   -251.46978      834.013       21.977       21.977       21.977            0            0            0    685.11666    1126.3671    690.55523   -237.15127    -292.7245   -278.51081 
  464500    483.96329   -251.38899    793.61327       21.977       21.977       21.977            0            0            0    1009.7631    980.98032    390.09643   -164.63421   -184.42813   -90.657081 
  465000    523.17679   -250.75724    1105.6812       21.977       21.977       21.977            0            0            0    1234.8401    778.54572    1303.6577   -27.646526    420.23818   -107.48408 
  465500     546.0571   -253.25421    6.8590499       21.977       21.977       21.977            0            0            0    -41.30902     389.1291   -327.24293    225.63899   -161.10044   -33.158114 
  466000     487.7905   -250.83489    779.91255       21.977       21.977       21.977            0            0            0    745.67664    952.06128    641.99972   -730.36703   -501.27976    900.87025 
  466500    467.40981   -250.84381    661.85878       21.977       21.977       21.977            0            0            0     1338.748    801.40117   -154.57277   -102.41522   -923.61192    160.32786 
  467000    497.59753   -250.42805    855.38293       21.977       21.977       21.977            0            0            0    1240.7832    933.10118    392.26436   -670.19752   -86.158436   -94.870433 
  467500    509.82284   -251.71241    757.69595       21.977       21.977       21.977            0            0            0    1122.8831    665.82996    484.37481    999.09034     44.58665    479.40522 
  468000    484.99974   -252.16386     380.9163       21.977       21.977       21.977            0            0            0    512.01685    178.44292    452.28912   -323.69585   -1055.5211   -990.06327 
  468500     466.6159   -251.58579    277.03842       21.977       21.977       21.977            0            0            0    308.36272    911.42212   -388.66958   -79.617983   -336.77956   -602.16892 
  469000    486.97009   -252.07474    277.03301       21.977       21.977       21.977            0            0            0    551.39853   -333.03816    612.73867   -644.98663   -71.357059    656.05082 
  469500    473.87111   -251.68074    436.46471       21.977       21.977       21.977            0            0            0    472.23268    961.05833   -123.89689    1086.0105    24.478409   -353.55451 
  470000    463.88647   -252.54288    197.13098       21.977       21.977       21.977            0            0            0   -247.68178    193.24772    645.82699    1040.9879   -710.60242   -25.777605 
  470500    465.83793   -251.53496    416.11721       21.977       21.977       21.977            0            0            0    390.49981    160.08919    697.76263   -514.93333   -156.16522    123.23343 
  471000    525.76502   -251.60266    581.63938       21.977       21.977       21.977            0            0            0    69.796805    486.16357    1188.9578     70.32887   -70.502389   -876.60763 
  471500    479.85176   -249.63737    1414.4792       21.977       21.977       21.977            0            0            0    1531.3235    1459.3624    1252.7518    66.582868   -216.24133    438.25371 
  472000    494.68468     -251.626    705.42682       21.977       21.977       21.977            0            0            0    464.03739     950.0042    702.23888     271.6887   -92.630351    498.83221 
  472500    525.72309   -252.15932    569.72875       21.977       21.977       21.977            0            0            0    915.37774   -544.69553     1338.504   -81.597234    551.24009   -509.01341 
  473000    500.56221   -251.19876    608.06426       21.977       21.977       21.977            0            0            0    732.37034    1219.2827   -127.46027   -379.61341   -678.42921    90.043572 
  473500    477.31201   -250.63703    1078.0563       21.977       21.977       21.977            0            0            0    1153.9335    1036.3233    1043.9121    91.592723     88.79499   -83.127616 
  474000    519.16328   -252.06826    393.37195       21.977       21.977       21.977            0            0            0    761.53561     275.7633    142.81696    179.90447   -316.98415    203.10937 
  474500     503.6031   -250.66822    1051.1622       21.977       21.977       21.977            0            0            0    647.80786    1601.3569    904.32172     247.0857    910.44656   -423.96289 
  475000    502.29982   -252.92472    148.05789       21.977       21.977       21.977            0            0            0    278.39211   -508.06362    673.84518    68.431887    230.64432   -347.78822 
  475500    522.19417   -250.44132    1069.8319       21.977       21.977       21.977            0            0            0    480.54962    2423.6029    305.34329   -358.35881   -462.64868   -396.85435 
  476000    466.14552   -252.40668    38.587922       21.977       21.977       21.977            0            0            0    501.79654   -787.46704    401.43426    245.86933   -203.54231    48.032538 
  476500    459.37081   -252.09923    367.27015       21.977       21.977       21.977            0            0            0    395.31813    50.546521    655.94581   -402.71499    138.26257    157.27031 
  477000    485.52631   -251.88542    664.93184       21.977       21.977       21.977            0            0            0    395.43906    203.61122    1395.7452    339.70401    202.02089   -129.84116 
  477500    500.68672   -252.09306    549.17515       21.977       21.977       21.977            0            0            0   -175.12632    1078.0639    744.58786    4.3723047   -202.25104   -467.73272 
  478000    526.94267    -251.1752    913.49407       21.977       21.977       21.977            0            0            0    193.35837    1018.1815    1528.9423   -244.17781   -831.11649   -237.20809 
  478500    520.08468   -251.33053     617.0508       21.977       21.977       21.977            0            0            0    587.86815    434.78044    828.50382   -256.99044   -212.81167   -304.69138 
  479000    502.36599   -252.08839     535.3484       21.977       21.977       21.977            0            0            0    316.91814    191.59725    1097.5298    -122.9695     880.6744    179.00682 
  479500    481.15769   -252.00378    466.75001       21.977       21.977       21.977            0            0            0    1546.6908    190.59842   -337.03919    -265.3466    331.81415     114.7394 
  480000    509.06553   -250.33884    1031.8514       21.977       21.977       21.977            0            0            0   -166.53268    2123.5355    1138.5512   -404.49086   -464.92513     93.75343 
  480500    500.86817   -251.79555    359.65206       21.977       21.977       21.977            0            0            0    501.13074    260.79849    317.02696   -402.85128   -163.59879   -18.512179 
  481000    507.34875   -250.32825    1120.6747       21.977       21.977       21.977            0            0            0    1409.3636    616.59459    1336.0658   -361.59509   -408.19793    388.20715 
  481500    485.22696    -251.9047    289.69996       21.977       21.977       21.977            0            0            0    1047.5747   -50.342735   -128.13208    45.383496    66.658723    116.24517 
  482000     437.8601   -251.85414    405.08098       21.977       21.977       21.977            0            0            0    399.96997    572.62915    242.64383      -111.86    2.3574139   -64.756304 
  482500    480.74528   -251.86193     423.3128       21.977       21.977       21.977            0            0            0    331.61027    1347.6251   -409.29694    848.58911    350.48188   -335.68142 
  483000    496.13683   -251.53674    803.85778       21.977       21.977       21.977            0            0            0    502.93492    1498.3309    410.30751    574.18402    242.85459    695.08666 
  483500    522.18185   -251.31345    821.89744       21.977       21.977       21.977            0            0            0    918.03783     1396.586    151.06846   -386.55706    551.04803    306.37473 
  484000    486.92508   -252.17201    566.55108       21.977       21.977       21.977            0            0            0    600.64915    242.51758    856.48649    321.36881     25.83806    1293.5881 
  484500    504.55441   -250.80818    743.24783       21.977       21.977       21.977            0            0            0    1508.3598    -120.7617    842.14544    367.48686   -364.87371    40.410885 
  485000    490.65153   -250.81231     782.0421       21.977       21.977       21.977            0            0            0    310.78547    831.65389    1203.6869   -514.04803   -214.13557    248.14412 
  485500    534.91469   -250.24931    1151.9749       21.977       21.977       21.977            0            0            0    1198.2004    439.98836    1817.7359    388.69193    192.52274   -341.21679 
  486000     501.4719   -251.10208    1148.4953       21.977       21.977       21.977            0            0            0    471.04969    2131.2519    843.18434    11.954315    596.95207   -262.26977 
  486500    519.58581   -251.13741    703.42616       21.977       21.977       21.977            0            0            0    82.425966    1596.7215    431.13105    128.17829   -360.61691    116.68472 
  487000    558.68772   -252.05545    837.91733       21.977       21.977       21.977            0            0            0    1254.2803     1264.543   -5.0712529   -848.12161   -124.64621   -512.22011 
  487500    468.45922   -251.86377    266.40766       21.977       21.977       21.977            0            0            0    830.01991   -74.074116     43.27718   -153.16126    433.86381   -214.19471 
  488000    512.71052   -251.85679    589.51794       21.977       21.977       21.977            0            0            0    1651.1809   -190.06412    307.43707   -181.23104   -517.79435    101.73029 
  488500    530.23074   -250.38389    1108.4013       21.977       21.977       21.977            0            0            0    681.85317    714.55383    1928.7968   -380.47817   -322.19297    251.83071 
  489000    476.79343   -250.86366    919.35428       21.977       21.977       21.977            0            0            0    680.74244    438.95487    1638.3655   -429.94819    382.60365    101.25018 
  489500    518.76713   -251.03675    793.82368       21.977       21.977       21.977            0            0            0    216.17619    1711.7191    453.57573    549.91804   -481.52915    639.09947 
  490000     464.9691   -252.15449    578.85021       21.977       21.977       21.977            0            0            0    1634.6115    105.39228   -3.4531906    624.45461    146.22511   -174.00979 
  490500    518.89669   -252.81934    276.62554       21.977       21.977       21.977            0            0            0    -343.4233    836.72596    336.57396   -469.81362   -508.41603    166.12093 
  491000    511.75506   -250.62549    909.85567       21.977       21.977       21.977            0            0            0    1039.0517    1149.4242    541.09112    669.34332   -501.98052   -77.004242 
  491500     473.4469   -252.11748    235.06684       21.977       21.977       21.977            0            0            0   -162.10081    762.89373    104.40759   -308.85316   -62.704178     192.0604 
  492000    540.64151   -250.31969    1050.9882       21.977       21.977       21.977            0            0            0    755.36513    1456.5484    941.05103    16.067434    535.91014    1012.1726 
  492500     513.9127   -251.68129     567.5927       21.977       21.977       21.977            0            0            0    656.47916    113.00664     933.2923    220.61209    209.58483   -453.97641 
  493000     452.4622   -252.26267    162.58484       21.977       21.977       21.977            0            0            0   -918.11289    564.98587    840.88153   -317.27538   -30.690698    164.96482 
  493500    518.85971   -252.18598    434.41586       21.977       21.977       21.977            0            0            0    1121.6249    356.64442   -175.02176   -30.146523    -40.08683   -24.203376 
  494000    521.69565    -251.3564    934.04396       21.977       21.977       21.977            0            0            0    1282.6627    1016.5336    502.93553    203.89052   -578.83963   -46.199105 
  494500    505.68973   -252.25846    543.69001       21.977       21.977       21.977            0            0            0    698.98833    850.46672    81.614975    285.79707   -193.26453     930.7375 
  495000    497.59208   -252.08795    578.45877       21.977       21.977       21.977            0            0            0     493.8098   -344.08028    1585.6468   -13.337207   -633.76755    248.73188 
  495500     537.9222   -250.51978    960.21224       21.977       21.977       21.977            0            0            0    781.12415    1172.1727    927.33983   -357.55796   -419.64084    194.01769 
  496000    435.86041   -250.64908    814.87743       21.977       21.977       21.977            0            0            0    365.50959    1741.7033    337.41935   -197.01213   -15.832698    257.35258 
  496500    484.06017   -251.96167    465.17381       21.977       21.977       21.977            0            0            0    746.18622    399.70878    249.62643   -966.03529   -130.47987   -195.98684 
  497000    514.54955   -251.91841    486.61145       21.977       21.977       21.977            0            0            0    881.08321   -246.92749    825.67865    60.071246    -341.9796     263.8686 
  497500    533.69651   -251.12245     787.5656       21.977       21.977       21.977            0            0            0    1047.1294    551.76662    763.80074   -137.36148    145.12398    144.33711 
  498000    508.49407   -250.91757    884.11053       21.977       21.977       21.977            0            0            0    717.59151    654.66391    1280.0762    422.82867    859.02912    68.655848 
  498500    502.31709   -250.57984     1001.166       21.977       21.977       21.977            0            0            0    1200.8056    990.74736    811.94485   -679.87244   -113.94546    147.40311 
  499000     502.3927   -250.27049    1155.6118       21.977       21.977       21.977            0            0            0    709.29417    1720.0856    1037.4555    628.48369   -353.42919   -808.96643 
  499500    514.28216   -251.97924    582.27404       21.977       21.977       21.977            0            0            0    355.09882    495.08999    896.63331   -92.962781    -512.2291   -697.88202 
  500000    494.42948   -250.01196    1068.7037       21.977       21.977       21.977            0            0            0    884.65086    1368.2025    953.25777    119.84618   -78.937057    842.66969 
Loop time of 396.285 on 2 procs for 500000 steps with 250 atoms

Performance: 218.025 ns/day, 0.110 hours/ns, 1261.717 timesteps/s
94.4% CPU use with 2 MPI tasks x no OpenMP threads

MPI task timing breakdown:
Section |  min time  |  avg time  |  max time  |%varavg| %total
---------------------------------------------------------------
Pair    | 294.93     | 310.53     | 326.13     |  88.5 | 78.36
Neigh   | 5.8892     | 6.0164     | 6.1435     |   5.2 |  1.52
Comm    | 12.084     | 27.842     | 43.6       | 298.6 |  7.03
Output  | 44.227     | 44.231     | 44.235     |   0.1 | 11.16
Modify  | 6.4953     | 6.5459     | 6.5966     |   2.0 |  1.65
Other   |            | 1.121      |            |       |  0.28

Nlocal:    125 ave 127 max 123 min
Histogram: 1 0 0 0 0 0 0 0 0 1
Nghost:    1421 ave 1433 max 1409 min
Histogram: 1 0 0 0 0 0 0 0 0 1
Neighs:    8652 ave 8979 max 8325 min
Histogram: 1 0 0 0 0 0 0 0 0 1

Total # of neighbors = 17304
Ave neighs/atom = 69.216
Neighbor list builds = 15528
Dangerous builds = 0

Total wall time: 0:06:39
