LAMMPS (16 Jul 2018)
echo both

include		in.temp
variable	temperature equal 550.
variable	tempDamp equal 0.1 # approx 0.1 ps
include		in.pressure
variable	pressure equal 1.
variable	pressureDamp equal 1.0
include 	in.seed
variable	seed equal 74581
units		metal
include		in.box
read_data	data.equil
  orthogonal box = (0 0 0) to (21.977 21.977 21.977)
  1 by 1 by 2 MPI processor grid
  reading atoms ...
  250 atoms
  reading velocities ...
  250 velocities

variable 	mass equal 22.98977
mass            1 ${mass}
mass            1 22.98977
include 	in.setup
variable	out_freq equal 500
variable	out_freq2 equal 500

neigh_modify    delay 10 every 1
include		in.na
pair_style      eam/fs
pair_coeff      * * Na_MendelevM_2014.eam.fs Na

timestep	0.002 # According to Frenkel and Smit is 0.001

thermo          ${out_freq}
thermo          500
thermo_style 	custom step temp pe press lx ly lz xy xz yz pxx pyy pzz pxy pxz pyz


restart 	${out_freq} restart.lmp restart2.lmp
restart 	500 restart.lmp restart2.lmp



# NPT

fix             1 all nve
fix             2 all temp/csvr ${temperature} ${temperature} ${tempDamp} ${seed}
fix             2 all temp/csvr 550 ${temperature} ${tempDamp} ${seed}
fix             2 all temp/csvr 550 550 ${tempDamp} ${seed}
fix             2 all temp/csvr 550 550 0.1 ${seed}
fix             2 all temp/csvr 550 550 0.1 74581

velocity        all create ${temperature} ${seed} dist gaussian
velocity        all create 550 ${seed} dist gaussian
velocity        all create 550 74581 dist gaussian

run             5000
Neighbor list info ...
  update every 1 steps, delay 10 steps, check yes
  max neighbors/atom: 2000, page size: 100000
  master list distance cutoff = 11.2
  ghost atom cutoff = 11.2
  binsize = 5.6, bins = 4 4 4
  1 neighbor lists, perpetual/occasional/extra = 1 0 0
  (1) pair eam/fs, perpetual
      attributes: half, newton on
      pair build: half/bin/atomonly/newton
      stencil: half/bin/3d/newton
      bin: standard
Per MPI rank memory allocation (min/avg/max) = 3.01 | 3.01 | 3.01 Mbytes
Step Temp PotEng Press Lx Ly Lz Xy Xz Yz Pxx Pyy Pzz Pxy Pxz Pyz 
       0          550   -257.19306     -975.087       21.977       21.977       21.977            0            0            0   -1492.7983   -950.11405   -482.34863    87.517986    496.41702    77.400511 
     500    531.96602    -250.3784     1220.252       21.977       21.977       21.977            0            0            0    1029.6036    1013.3745    1617.7779    921.49147    356.29907    62.793828 
    1000    555.79227   -249.46163    1442.1711       21.977       21.977       21.977            0            0            0    1177.7649    436.77691    2711.9714   -133.49554   -361.59873    209.62504 
    1500    533.42363   -249.15432    1604.0557       21.977       21.977       21.977            0            0            0    1467.9262    1583.9684    1760.2724    240.04683    145.68224   -690.65209 
    2000    496.28748   -250.05451    1109.7549       21.977       21.977       21.977            0            0            0    890.38728    1784.0885    654.78893    349.23408   -131.59404    254.55069 
    2500    602.08465   -249.33231    1467.8031       21.977       21.977       21.977            0            0            0    1262.6562    1894.8877    1245.8654   -922.89311   -343.60254    210.01663 
    3000    533.23494   -249.59626    1320.8598       21.977       21.977       21.977            0            0            0    1541.6977    2023.6233    397.25837    741.49624   -38.877279   -571.74709 
    3500    539.81575   -251.15465    857.54426       21.977       21.977       21.977            0            0            0    261.80167    1461.1577    849.67344    440.44668   -13.236329    49.753882 
    4000    562.86851   -249.63138    1279.0572       21.977       21.977       21.977            0            0            0    1322.9121    942.21787    1572.0418   -796.73311    90.657561    817.91325 
    4500    505.91746   -249.27336    1477.1322       21.977       21.977       21.977            0            0            0    1587.4742    2422.7629    421.15944   -558.13679   -270.07488    474.83532 
    5000    518.34475   -248.88371      1465.49       21.977       21.977       21.977            0            0            0    1341.7028    1283.8077    1770.9594    98.122732    668.41569     294.7142 
Loop time of 2.46769 on 2 procs for 5000 steps with 250 atoms

Performance: 350.124 ns/day, 0.069 hours/ns, 2026.183 timesteps/s
90.0% CPU use with 2 MPI tasks x no OpenMP threads

MPI task timing breakdown:
Section |  min time  |  avg time  |  max time  |%varavg| %total
---------------------------------------------------------------
Pair    | 1.6937     | 1.7584     | 1.8231     |   4.9 | 71.26
Neigh   | 0.039363   | 0.040257   | 0.04115    |   0.4 |  1.63
Comm    | 0.087655   | 0.15326    | 0.21886    |  16.8 |  6.21
Output  | 0.49277    | 0.49281    | 0.49285    |   0.0 | 19.97
Modify  | 0.015712   | 0.015998   | 0.016284   |   0.2 |  0.65
Other   |            | 0.007001   |            |       |  0.28

Nlocal:    125 ave 126 max 124 min
Histogram: 1 0 0 0 0 0 0 0 0 1
Nghost:    1411 ave 1420 max 1402 min
Histogram: 1 0 0 0 0 0 0 0 0 1
Neighs:    8653 ave 9020 max 8286 min
Histogram: 1 0 0 0 0 0 0 0 0 1

Total # of neighbors = 17306
Ave neighs/atom = 69.224
Neighbor list builds = 161
Dangerous builds = 0

unfix		1
unfix		2

reset_timestep	0

timer 		timeout 23:50:00 every 1000
New timer settings: style=normal  mode=nosync  timeout=23:50:00

fix             1 all plumed plumedfile plumed.dat outfile plumed.out
fix             2 all nve
fix             3 all temp/csvr ${temperature} ${temperature} ${tempDamp} ${seed}
fix             3 all temp/csvr 550 ${temperature} ${tempDamp} ${seed}
fix             3 all temp/csvr 550 550 ${tempDamp} ${seed}
fix             3 all temp/csvr 550 550 0.1 ${seed}
fix             3 all temp/csvr 550 550 0.1 74581

run             500000
Per MPI rank memory allocation (min/avg/max) = 3.01 | 3.01 | 3.01 Mbytes
Step Temp PotEng Press Lx Ly Lz Xy Xz Yz Pxx Pyy Pzz Pxy Pxz Pyz 
       0    518.34475   -248.88371      1465.49       21.977       21.977       21.977            0            0            0    1341.7028    1283.8077    1770.9594    98.122732    668.41569     294.7142 
     500    533.89183   -250.26422    1064.3487       21.977       21.977       21.977            0            0            0    754.03423     1143.944    1295.0678   -441.68354   -58.034561   -487.99955 
    1000    583.10266   -251.85905    660.91138       21.977       21.977       21.977            0            0            0    1218.0487    126.80616    637.87926   -385.48544   -15.289908   -178.38716 
    1500    560.65117   -249.68498     1631.825       21.977       21.977       21.977            0            0            0    1911.3035    1317.1628    1667.0087    75.543969    317.98222    87.167017 
    2000    500.14342   -249.21236    1247.3834       21.977       21.977       21.977            0            0            0    1371.3885    409.01388    1961.7479   -716.08827    -51.69812    20.478223 
    2500     599.0459   -248.93623    2095.3434       21.977       21.977       21.977            0            0            0    1783.5396    2955.6102    1546.8803   -186.22194    214.49661   -657.93343 
    3000    528.87016   -249.95364    1289.1922       21.977       21.977       21.977            0            0            0    760.36806     1531.844    1575.3645   -21.928635   -355.84344   -15.563041 
    3500    514.33451   -249.45932    1474.4754       21.977       21.977       21.977            0            0            0    1508.5121    1492.3376    1422.5764   -274.82919   -168.56204   -84.169259 
    4000    585.31922    -250.7736    1113.2312       21.977       21.977       21.977            0            0            0    1206.4409    886.06055    1247.1922   -643.49701    670.61386    171.11663 
    4500    525.56594   -250.09871    1148.1737       21.977       21.977       21.977            0            0            0    2193.6376   -134.30197    1385.1854    97.648519   -747.24037    24.536661 
    5000    495.32707   -248.80407    1520.8474       21.977       21.977       21.977            0            0            0    1057.5496     1050.285    2454.7077    176.25752    1065.4366    397.13059 
    5500    584.53162   -248.82292    1791.9698       21.977       21.977       21.977            0            0            0    2276.9498    2774.9246    324.03513   -553.02437    110.09026    321.75245 
    6000    512.70114   -249.94426    1070.2332       21.977       21.977       21.977            0            0            0    2017.6991    319.60288    873.39751   -881.92864   -563.45669    23.730968 
    6500    579.15679   -248.45182    1924.8299       21.977       21.977       21.977            0            0            0    1473.8537    2134.7889    2165.8471   -120.32218    136.89988    11.879013 
    7000    503.94562   -250.18148    1262.3211       21.977       21.977       21.977            0            0            0    1558.1365    701.79218    1527.0347    166.53297    201.54988   -192.18895 
    7500    579.63175   -250.89884    998.58427       21.977       21.977       21.977            0            0            0    945.78819    1302.0465    747.91813   -455.35347    741.69025    28.538611 
    8000    565.48664    -250.4529    1010.7457       21.977       21.977       21.977            0            0            0    893.93438    959.57847    1178.7242   -296.90665    716.09384   -80.401091 
    8500    516.77637   -249.67832    1096.7055       21.977       21.977       21.977            0            0            0    1135.0336    804.38444    1350.6986   -885.41852   -99.798767    47.027318 
    9000    530.47799    -249.7277    1301.2335       21.977       21.977       21.977            0            0            0    1698.0512    1737.2729    468.37646   -291.32002   -1006.7522   -1035.7845 
    9500    543.50866   -248.88996    1487.6552       21.977       21.977       21.977            0            0            0    1799.6148    1622.7783    1040.5726   -1019.1598   -179.66776   -191.25485 
   10000    574.81681   -250.66346    1070.7176       21.977       21.977       21.977            0            0            0    1100.7645     1173.449     937.9392    690.96693   -323.25895   -918.03517 
   10500    508.64953   -250.63499    647.76981       21.977       21.977       21.977            0            0            0    770.43848    501.90047    670.97048   -367.98245    257.10995   -321.23573 
   11000     540.4526   -249.53818    1349.2632       21.977       21.977       21.977            0            0            0    1065.1379    1753.1186     1229.533    150.57771    277.75721   -1043.8074 
   11500     541.0224   -249.50996    1526.4443       21.977       21.977       21.977            0            0            0    2101.5751    1576.1546    901.60322    122.08474    210.70097   -506.74581 
   12000    548.91591   -249.87733    1280.9539       21.977       21.977       21.977            0            0            0    1356.7604    842.54177    1643.5595   -233.38674     -189.913      228.703 
   12500    543.01931    -249.3223    1591.8077       21.977       21.977       21.977            0            0            0    1899.5284    1532.2592    1343.6356     190.0516   -28.281343    477.60507 
   13000    556.88454   -249.03415     1386.113       21.977       21.977       21.977            0            0            0    1007.6193    1497.2854    1653.4343    582.18347   -133.63134   -430.31404 
   13500    631.50213   -249.54057    1933.8512       21.977       21.977       21.977            0            0            0    2147.9347    2112.4115    1541.2075    -301.6964    20.899429    579.82285 
   14000     552.7759   -250.40184     1501.688       21.977       21.977       21.977            0            0            0    938.23067    2412.8247    1154.0088    438.85303    388.03965   -216.79052 
   14500    574.17005   -249.49034    1816.6424       21.977       21.977       21.977            0            0            0    1242.1518    2525.7789    1681.9965    602.40664   -367.13896   -638.31983 
   15000    552.05372   -250.93252    1022.5788       21.977       21.977       21.977            0            0            0    779.06948    1024.7891    1263.8777   -36.545611    47.481178   -46.810678 
   15500    504.75145   -250.36073    1252.4847       21.977       21.977       21.977            0            0            0    1504.9771    923.39655    1329.0805   -699.41835     51.13444    146.95414 
   16000    559.39982   -250.77071    1215.8238       21.977       21.977       21.977            0            0            0    1215.9689    1023.9183    1407.5842    213.73998    498.70013    247.71403 
   16500    484.64223   -250.51422    805.24298       21.977       21.977       21.977            0            0            0     703.5994    1015.6005    696.52899    536.66275   -16.281611   -109.81737 
   17000    598.20469   -248.17345    2005.7672       21.977       21.977       21.977            0            0            0    1653.5212    2096.4414    2267.3391   -158.16759    505.41481   -313.99127 
   17500    567.93021   -249.09251    1395.6754       21.977       21.977       21.977            0            0            0    743.49912    1162.0669    2281.4603    -151.1044   -388.49574    421.29788 
   18000    520.34513   -249.25653    1504.0366       21.977       21.977       21.977            0            0            0    2204.0809    741.78316    1566.2457   -72.473217   -833.39265   -612.00346 
   18500    511.12564   -250.27168    1141.8315       21.977       21.977       21.977            0            0            0    1263.7998    1579.3213    582.37331   -11.733586   -364.62955   -198.50126 
   19000    530.89516    -250.4454    856.36636       21.977       21.977       21.977            0            0            0    1124.0112    1000.8578    444.23017    813.80508   -558.81357   -314.21906 
   19500     563.8788   -250.54346    1301.9988       21.977       21.977       21.977            0            0            0    9.3599188    2018.1627    1878.4738    339.61626    -408.6591    6.9586237 
   20000     582.4663   -249.24589    1408.0349       21.977       21.977       21.977            0            0            0    1319.9572    1469.0673    1435.0804   -157.82358    29.852646    -383.1303 
   20500    585.67244   -249.11369    1670.7681       21.977       21.977       21.977            0            0            0    1683.9047    1390.4251    1937.9744    649.39052   -38.191459   -260.16941 
   21000    550.42431    -249.6539    1686.8888       21.977       21.977       21.977            0            0            0    1752.5982    1182.5081    2125.5601     655.0706   -381.14419    278.28902 
   21500    585.89268   -249.14081    1995.0194       21.977       21.977       21.977            0            0            0    1905.3866     2107.807    1971.8647    -338.3777    178.18433    239.18363 
   22000    564.31737   -250.70237    1128.7852       21.977       21.977       21.977            0            0            0    1360.5798    743.94487    1281.8309    223.13895    783.56236    500.60255 
   22500    576.19486   -249.90572     1302.698       21.977       21.977       21.977            0            0            0    1779.9966    2337.0789   -208.98163    145.82534    304.89612   -59.577763 
   23000    536.18894    -250.2123    1120.9444       21.977       21.977       21.977            0            0            0    1037.9207      830.646    1494.2665   -247.65927    450.67534    102.08491 
   23500    573.51628   -249.54998    1318.1722       21.977       21.977       21.977            0            0            0    1022.1739    1383.3576    1548.9852   -269.82946   -176.66144    299.67897 
   24000    549.29644   -250.78071    809.27175       21.977       21.977       21.977            0            0            0    1146.0425     525.4976    756.27513    491.33205    -271.9725     802.7381 
   24500    565.02997   -249.75403    1423.4197       21.977       21.977       21.977            0            0            0    1713.6319    1419.8144    1136.8128    20.121512   -295.92339    65.644591 
   25000    562.28376   -249.07645    1626.4466       21.977       21.977       21.977            0            0            0    1497.0254    1209.1591    2173.1553    666.56335    430.21903    24.031088 
   25500    582.70558   -249.98205    1280.7211       21.977       21.977       21.977            0            0            0    1338.4331    1279.3855    1224.3447     618.0285    -562.4409   -196.84838 
   26000    530.92085   -250.30062    1121.4062       21.977       21.977       21.977            0            0            0    1040.7865    979.56117     1343.871   -317.36702    585.51107    670.79977 
   26500    502.46065   -250.99907    644.17364       21.977       21.977       21.977            0            0            0    158.61776    527.85559    1246.0476    195.00934    26.703408    11.555862 
   27000    544.10389   -250.41358     1019.252       21.977       21.977       21.977            0            0            0    769.71831    437.72778    1850.3098    455.85088    288.45987    26.699298 
   27500    541.62319    -249.8112    1360.2922       21.977       21.977       21.977            0            0            0     1547.525    1650.6666    882.68489   -120.82686   -374.85448    882.80884 
   28000    551.26849   -249.26187    1823.2672       21.977       21.977       21.977            0            0            0    1897.0909    2844.1139    728.59677   -246.54474    -364.4945     185.2101 
   28500    560.46746   -249.15778    1688.0227       21.977       21.977       21.977            0            0            0     1964.994    1875.9577    1223.1163    519.08216    504.72111    231.75877 
   29000    555.11758   -250.22885    1233.8376       21.977       21.977       21.977            0            0            0    1279.3852     898.8031    1523.3246    223.79541   -221.84347   -387.48293 
   29500    576.23523   -249.49925    1459.7462       21.977       21.977       21.977            0            0            0   -193.52877    2225.5688    2347.1984    -1.485301     335.3105    -288.8538 
   30000    485.97222   -250.67387    1099.7783       21.977       21.977       21.977            0            0            0   -166.31436    1683.9082    1781.7412    556.12997    435.18224   -208.62752 
   30500    506.62987   -249.72607    1239.8344       21.977       21.977       21.977            0            0            0    771.79757    1646.7982    1300.9075   -97.928648   -50.326237   -753.17896 
   31000    514.20688   -249.19098    1494.7948       21.977       21.977       21.977            0            0            0    2392.7521     1126.791    964.84122    526.51858     -564.515    152.74402 
   31500    535.30199   -249.68978    1209.9836       21.977       21.977       21.977            0            0            0    620.55328    999.13489    2010.2625   -634.35459   -24.884187    123.90537 
   32000    557.79697   -249.47001    1449.0964       21.977       21.977       21.977            0            0            0    1760.3666    1522.8569    1064.0656   -639.99302   -1297.0138    419.02738 
   32500    588.39101   -250.92834    1244.2099       21.977       21.977       21.977            0            0            0    1319.9595    1849.5426    563.12758   -6.8015714    587.08576    463.14217 
   33000     563.5778   -248.84213    1568.7799       21.977       21.977       21.977            0            0            0    1477.9076    2209.5358    1018.8962   -951.02369    43.389086   -507.40491 
   33500    564.30136   -250.94998    1240.1147       21.977       21.977       21.977            0            0            0    1356.9232    1024.0355    1339.3855   -125.63268    40.212712   -401.55956 
   34000    534.28909   -249.35008    1344.1141       21.977       21.977       21.977            0            0            0    2672.8918    366.01074    993.43965    253.26925    321.76908    -17.18736 
   34500    571.99659   -250.14255    1274.8675       21.977       21.977       21.977            0            0            0    1246.4815    1834.0415    744.07958   -783.92574    61.645958    83.512368 
   35000    486.60433   -248.41439    1880.1168       21.977       21.977       21.977            0            0            0    2040.4339    2736.6102    863.30642    551.97783   -535.96533    40.694699 
   35500    547.87807   -250.22543    1291.6288       21.977       21.977       21.977            0            0            0    1608.7831    1346.0349     920.0684    233.60099   -42.213905    87.722219 
   36000    532.55617   -249.88324    1355.2923       21.977       21.977       21.977            0            0            0    1478.3307    1743.0768    844.46946   -398.22173    270.24929    11.791176 
   36500    557.45797   -250.32014    1433.9044       21.977       21.977       21.977            0            0            0    1714.2172    1154.9481    1432.5477    74.395755   -107.31304   -592.26162 
   37000    513.22765    -248.5268    1840.6814       21.977       21.977       21.977            0            0            0    1316.0514    2516.7394    1689.2534   -567.45431    89.503505   -297.72339 
   37500    583.15217   -249.79389    1450.5513       21.977       21.977       21.977            0            0            0    811.83069    1573.8864    1965.9368    57.538164   -970.24438   -18.057147 
   38000    570.67549   -249.97397    1464.8325       21.977       21.977       21.977            0            0            0    1781.4657    2095.1681    517.86362    186.44103   -230.24014    507.45624 
   38500    593.91021    -249.2946    1791.9409       21.977       21.977       21.977            0            0            0    837.35793    2380.1285    2158.3364    592.06075   -237.80205    486.79919 
   39000    549.44745   -250.26124    1148.1841       21.977       21.977       21.977            0            0            0    1177.7489    1446.9241    819.87926   -125.20874   -822.28693   -136.60704 
   39500    575.82384   -249.84405     1466.441       21.977       21.977       21.977            0            0            0    1502.9792    1551.9604    1344.3835    -172.5372    -555.6935   -496.44767 
   40000    551.34422   -249.93249    1599.8698       21.977       21.977       21.977            0            0            0    1740.8141    1604.6394    1454.1558   -141.71229   -144.49793    -507.1697 
   40500    602.71734   -249.92477    1509.7306       21.977       21.977       21.977            0            0            0    1497.1394    1810.1021    1221.9503   -607.60505    165.83866   -124.56033 
   41000    527.85053   -249.45232    1596.0729       21.977       21.977       21.977            0            0            0    2489.8366    1708.5464     589.8358   -437.38765   -297.09004   -859.47871 
   41500     493.2809   -251.19621    691.20977       21.977       21.977       21.977            0            0            0    676.68855    1227.7286    169.21216   -671.42904   -121.75395    547.96794 
   42000    541.93213   -249.74183    1287.9148       21.977       21.977       21.977            0            0            0    1460.5201    1072.1619    1331.0624   -40.810784   -274.00951   -133.49298 
   42500    554.60686   -249.04457    1880.6883       21.977       21.977       21.977            0            0            0    1777.4833     2264.724    1599.8575   -232.51543    127.47151    346.60069 
   43000    552.51932   -249.60142    1392.1807       21.977       21.977       21.977            0            0            0    914.62589    1369.3268    1892.5895    117.86439   -261.13657   -258.85558 
   43500    583.18045   -249.65668     1327.305       21.977       21.977       21.977            0            0            0    823.91649    1237.2244     1920.774   -794.74122    453.01768   -223.31638 
   44000    545.31705   -248.53148     1769.936       21.977       21.977       21.977            0            0            0    1570.6996    2816.4721    922.63645    760.71991   -41.714705    1137.0564 
   44500    522.28776   -250.34448    1033.2134       21.977       21.977       21.977            0            0            0    234.58462    1728.4923    1136.5633    1120.6528    178.70952    595.85955 
   45000    547.53597   -250.58667    1178.4036       21.977       21.977       21.977            0            0            0    1782.7654     736.5911    1015.8542    150.35929   -12.960857   -417.41817 
   45500    532.49971   -249.48546    1576.0842       21.977       21.977       21.977            0            0            0    1343.5872    1067.7162    2316.9492   -641.06683    651.64241     50.60497 
   46000    607.11346   -250.27029    1582.2043       21.977       21.977       21.977            0            0            0    1213.0218    1099.9726    2433.6185    52.338843    270.80814    1197.5617 
   46500    571.56152   -250.09322    1191.0974       21.977       21.977       21.977            0            0            0    1368.6946    732.81752      1471.78    214.97597   -247.08013   -589.02459 
   47000    535.35845   -248.98589     1560.032       21.977       21.977       21.977            0            0            0    1848.3972    1226.3989    1605.2998   -96.548238   -180.51487   -307.00958 
   47500    543.75467   -249.68235    1402.6698       21.977       21.977       21.977            0            0            0    689.58177    2233.1193    1285.3084   -227.43959   -19.725475   -448.43166 
   48000    513.75042   -249.37132    1186.8912       21.977       21.977       21.977            0            0            0    2256.5374    469.43264    834.70367    744.02244    -307.4997   -211.30067 
   48500    524.78682   -249.31343    1436.9716       21.977       21.977       21.977            0            0            0    791.12198    2691.1911     828.6018    327.20382   -210.22142    813.16402 
   49000    580.54974   -249.55517    1631.5191       21.977       21.977       21.977            0            0            0    1632.5671    1816.7514    1445.2387   -11.482769   -264.64912    804.64792 
   49500    495.18962   -250.68602    652.54374       21.977       21.977       21.977            0            0            0      389.203    1126.8474    441.58086   -291.04234   -570.30961   -98.711936 
   50000    553.17187   -250.72572    900.70291       21.977       21.977       21.977            0            0            0    1273.7479    811.60295    616.75785    131.55974   -420.25708   -257.77892 
   50500    527.37373   -249.18308    1176.7144       21.977       21.977       21.977            0            0            0    18.555292    1223.3937    2288.1942   -251.07127   -676.30963   -22.771288 
   51000    607.82833   -249.84913    1585.8961       21.977       21.977       21.977            0            0            0    1400.5583    2598.2418    758.88835   -1250.7249    320.26635    467.29712 
   51500    520.32369   -251.58826    613.04985       21.977       21.977       21.977            0            0            0    208.37162    1066.6885    564.08948     447.1548   -305.72893   -207.48034 
   52000    597.51797   -248.60183    1810.3753       21.977       21.977       21.977            0            0            0    2451.9297    1972.5314    1006.6648   -145.20076   -116.99453    770.36388 
   52500    512.14767   -249.60063    1037.8455       21.977       21.977       21.977            0            0            0     914.0785    1772.9476    426.51038    949.27134   -264.09438    48.257731 
   53000    578.95072   -249.80643    1366.4603       21.977       21.977       21.977            0            0            0    812.75815    1734.2449    1552.3778   -17.555196   -466.10009   -532.97637 
   53500      549.151   -250.58129    1476.2684       21.977       21.977       21.977            0            0            0    1702.1836    687.93981    2038.6817   -399.89689   -191.05188    52.815042 
   54000    543.67014   -250.96208     842.9772       21.977       21.977       21.977            0            0            0    880.33864    530.33874    1118.2542   -524.50651    507.34181   -845.54957 
   54500    581.76221   -250.63908    1381.9982       21.977       21.977       21.977            0            0            0    1189.0196    1614.9701    1342.0049   -468.94194   -426.33578    974.23733 
   55000    546.31269   -248.27867    1958.9909       21.977       21.977       21.977            0            0            0    2015.5152    2387.1245     1474.333   -339.45385    560.05406     375.9702 
   55500    619.71784   -249.83751    1805.3331       21.977       21.977       21.977            0            0            0    1581.7588    2042.3659    1791.8746    108.70061    339.86414    564.46344 
   56000    579.55322   -249.69721    1359.8087       21.977       21.977       21.977            0            0            0    1481.8958    588.39058    2009.1396    276.28932    58.774034    403.42646 
   56500    558.53888   -250.00003    1334.9337       21.977       21.977       21.977            0            0            0    29.900071    1926.7303    2048.1708    21.555605   -528.02697   -291.17006 
   57000    511.27567   -249.36889    1315.9643       21.977       21.977       21.977            0            0            0    954.35282    1476.8021     1516.738   -156.66924     984.3804   -149.25247 
   57500    541.76744   -249.22039    1752.0882       21.977       21.977       21.977            0            0            0    1182.0291    2648.5601    1425.6754    594.11927   -130.04371    755.13627 
   58000    562.12196   -249.83728    1423.6755       21.977       21.977       21.977            0            0            0    1991.1912    703.65483    1576.1803    231.69563   -437.18974    -303.1418 
   58500    567.74395   -249.18208     1637.548       21.977       21.977       21.977            0            0            0    2026.5155    2254.7331    631.39547    448.98697   -446.51925   -182.36415 
   59000    574.12567   -250.49516    1301.6108       21.977       21.977       21.977            0            0            0    1739.5216    387.48047    1777.8302   -654.19874    658.77006    -165.9059 
   59500    545.14218   -249.42451    1439.3049       21.977       21.977       21.977            0            0            0     1125.899    1419.8062    1772.2094   -76.412384   -80.240026   -591.74344 
   60000    561.44304   -250.75936    1271.5055       21.977       21.977       21.977            0            0            0    1548.8379    1727.9385     537.7401    681.65058   -197.72198     -436.029 
   60500    566.79807   -249.37775    1464.6563       21.977       21.977       21.977            0            0            0    966.63298     1322.586      2104.75   -825.26029   -253.03539    346.58164 
   61000    549.86115   -249.37677    1679.6076       21.977       21.977       21.977            0            0            0    1715.3525    2041.1888    1282.2814    883.23598    289.88668    74.276655 
   61500    478.06335   -249.91522    1062.9557       21.977       21.977       21.977            0            0            0    264.64161    1466.7793    1457.4462    123.02721    25.682065    202.87542 
   62000    592.67941   -249.28154    1571.2658       21.977       21.977       21.977            0            0            0    2049.9386    1474.3425    1189.5164    165.98969   -147.21018    451.85671 
   62500    554.42004   -248.17445    1717.9861       21.977       21.977       21.977            0            0            0    2619.4901    1048.2621    1486.2061    149.94544   -843.51412   -460.97282 
   63000     546.6968   -249.28134    1629.0129       21.977       21.977       21.977            0            0            0    1038.8615    2731.7816    1116.3956    725.25058    524.61248   -161.34503 
   63500    536.61278   -249.42332    1282.4733       21.977       21.977       21.977            0            0            0    1920.5863    999.65815    927.17553   -16.508315   -454.39114   -399.89597 
   64000    539.26723   -249.40953    1324.6515       21.977       21.977       21.977            0            0            0    434.19047    2546.8685    992.89553   -247.34858    46.163107    451.04765 
   64500    572.63035   -250.16015    1443.1949       21.977       21.977       21.977            0            0            0     1509.225    1486.9386    1333.4212   -51.200456     344.1677   -527.44611 
   65000    562.47914   -249.89051    1253.8135       21.977       21.977       21.977            0            0            0    1202.7496    1275.0063    1283.6847    -261.5941    405.48117   -1148.9483 
   65500    569.11714   -249.36447    1541.5468       21.977       21.977       21.977            0            0            0    1191.8074     1223.361    2209.4721   -40.266599    97.262453    -590.2843 
   66000    536.78864   -250.64013    1015.9812       21.977       21.977       21.977            0            0            0     639.6918    874.77031    1533.4814       28.455     352.1238   -111.67305 
   66500    548.84466   -250.91343    595.71346       21.977       21.977       21.977            0            0            0    474.70011    1112.9525    199.48779   -705.07203   -877.39093   -217.38226 
   67000    524.06436   -250.83458    980.95854       21.977       21.977       21.977            0            0            0    1459.6357    151.89259    1331.3473   -353.57269   -1039.7914    -254.0854 
   67500    539.99143   -249.97575     1176.021       21.977       21.977       21.977            0            0            0    1739.7329    178.33936    1609.9908    58.321247    507.81587     21.83052 
   68000    570.95221   -248.21341    2060.6743       21.977       21.977       21.977            0            0            0     1638.116    2227.2559    2316.6511   -198.02618   -298.18086   -293.19974 
   68500    508.31012   -248.87042    1378.9446       21.977       21.977       21.977            0            0            0    1780.2595    1193.1929    1163.3814   -35.828224   -145.13419   -27.116515 
   69000    531.51509   -248.43314    1600.3812       21.977       21.977       21.977            0            0            0    1515.8274    1257.0313    2028.2849    156.98868    604.18707     176.8063 
   69500    565.17505   -250.09147    1211.6031       21.977       21.977       21.977            0            0            0    1424.8659    1530.8599    679.08365   -61.997077    -649.3216    363.94502 
   70000    588.42618   -249.09642    1662.4817       21.977       21.977       21.977            0            0            0    2006.1361    2582.7942    398.51471    16.687695   -165.60736   -393.00142 
   70500    530.40425   -249.65785    1428.4477       21.977       21.977       21.977            0            0            0    1449.8442    1112.4685    1723.0305    681.65275   -793.67388    358.55851 
   71000    561.16859   -250.94981    1096.8173       21.977       21.977       21.977            0            0            0     1257.658    844.72189    1188.0721    426.30204   -482.55361   -372.06613 
   71500    561.68519   -249.79096    1427.0843       21.977       21.977       21.977            0            0            0    1153.8653    1403.0803    1724.3072   -261.66277    292.70348   -227.03096 
   72000     533.6457   -249.64137    1453.7702       21.977       21.977       21.977            0            0            0    1066.7272    893.58706    2400.9963    364.32505    713.20686   -661.45447 
   72500    556.96393   -250.09155    1077.1809       21.977       21.977       21.977            0            0            0     314.1437    795.23019    2122.1689   -329.77257    232.82526   -582.84988 
   73000    572.52022   -249.26224    1760.4905       21.977       21.977       21.977            0            0            0    2514.2469    953.42989    1813.7947    876.49996   0.68388158   -32.865432 
   73500    588.52068   -249.67757     1660.625       21.977       21.977       21.977            0            0            0    1908.0472    2160.1907    913.63719   -137.36339   -577.52747   -147.17298 
   74000    598.02885   -252.13263    765.85534       21.977       21.977       21.977            0            0            0    982.32499    855.11763    460.12339    675.37559    229.55957    289.31469 
   74500    549.88202   -251.15837    989.18332       21.977       21.977       21.977            0            0            0     1344.019    1364.7877    258.74328    519.86046    800.92272   -662.09496 
   75000     575.1701   -249.47004    1383.6656       21.977       21.977       21.977            0            0            0    1707.6751    1313.6319    1129.6898    320.94087    368.67729   -712.55177 
   75500     512.4416   -249.69546    1349.5516       21.977       21.977       21.977            0            0            0    372.98948    1679.3463    1996.3191    649.14653    251.56048   -235.03157 
   76000    507.95135   -250.12639    939.81032       21.977       21.977       21.977            0            0            0    1078.6972    1045.7302    695.00359    81.888512   -104.67876   -427.95306 
   76500    544.60263   -250.64507    1055.6832       21.977       21.977       21.977            0            0            0      1016.29    2006.8809    143.87856   -408.23318   -1061.4407    199.04445 
   77000    569.57948   -250.05952    1421.2721       21.977       21.977       21.977            0            0            0     1128.981    1687.1169    1447.7182   -232.70636   -302.07098    153.83634 
   77500    519.11351   -250.56618    890.55595       21.977       21.977       21.977            0            0            0    1293.8706    482.81385    894.98341    264.98901     340.3676    202.27059 
   78000    610.79375    -248.9945    1838.0717       21.977       21.977       21.977            0            0            0    1648.0649    1633.9523    2232.1978    1174.3643   -706.34834    395.81638 
   78500    590.26286   -251.01931    793.24987       21.977       21.977       21.977            0            0            0    1241.5232    83.410371    1054.8161    120.30488   -87.423242   -450.34128 
   79000    558.82111   -249.29233    1562.1422       21.977       21.977       21.977            0            0            0    1698.2581    1154.6125    1833.5561    678.33685   -44.835792   -476.03497 
   79500    583.33898   -249.42343     1733.103       21.977       21.977       21.977            0            0            0    2340.8021    1032.2251    1826.2818   -209.14837   -988.40709   -187.76918 
   80000    523.74733   -249.19622    1452.5333       21.977       21.977       21.977            0            0            0    1469.9704    963.40702    1924.2225   -563.94964   -315.42758    464.30727 
   80500     553.5798   -248.85234    1586.7872       21.977       21.977       21.977            0            0            0    1672.3588    1065.5456    2022.4571    82.973979    757.46375    214.17185 
   81000    553.31644    -250.0129     1370.912       21.977       21.977       21.977            0            0            0    1041.4113    1173.7727     1897.552    1017.1171   -148.09313   -579.10201 
   81500    530.97071   -249.11093    1390.0464       21.977       21.977       21.977            0            0            0    1119.4614    1675.3258    1375.3519   -32.726501    49.435562    172.94117 
   82000    528.44135   -248.46731    1571.2411       21.977       21.977       21.977            0            0            0    1788.9596    1632.9041    1291.8597   -437.91875   -753.65068   -217.06594 
   82500    521.84268   -249.41384    1301.5216       21.977       21.977       21.977            0            0            0     1595.015    1357.7521    951.79789    380.19344   -206.30244    107.34614 
   83000    550.47253   -248.81871    1703.7392       21.977       21.977       21.977            0            0            0    2125.1064    1557.1681    1428.9432    417.88861     384.5481    872.23864 
   83500    534.10803   -249.32518    1462.5814       21.977       21.977       21.977            0            0            0    1638.9408    1808.7542    940.04933   -169.89923   -417.94621   -247.98265 
   84000    531.08818   -252.20151    395.14171       21.977       21.977       21.977            0            0            0     151.2602    971.67243    62.492494    434.14962   -270.87677   -306.28842 
   84500    585.69663    -250.5105    1473.1597       21.977       21.977       21.977            0            0            0     2294.126    1248.9536     876.3994    1022.4435    636.45786    426.02945 
   85000    600.13521   -249.57353    1492.8838       21.977       21.977       21.977            0            0            0    1833.2292    1859.2846     786.1376   -74.032591    -830.1951   -130.89084 
   85500    587.66509   -248.33807    1806.0723       21.977       21.977       21.977            0            0            0    2141.3832    1801.8896     1474.944    1188.7137    12.447402    11.015331 
   86000    501.32583   -249.66278    1377.0643       21.977       21.977       21.977            0            0            0    1377.7614    1459.6797    1293.7517   -150.73735   -548.79366    542.58325 
   86500    555.53993    -251.6428    943.98604       21.977       21.977       21.977            0            0            0    782.96135    1672.0768    376.92001   -550.75353    349.12947   -12.386457 
   87000    619.66957   -248.92098    1928.2689       21.977       21.977       21.977            0            0            0    1652.4007    2077.3929     2055.013    290.54766     171.6218   -32.333932 
   87500    570.90359   -249.65467    1484.3529       21.977       21.977       21.977            0            0            0    1339.7373    2107.9444    1005.3769    990.60909   -846.53163   -848.44185 
   88000    558.34767   -248.20879    1682.2736       21.977       21.977       21.977            0            0            0    1145.9587    2368.1681    1532.6941   -37.447486   -5.4892467   -802.83802 
   88500    516.71996   -250.50672    1295.1665       21.977       21.977       21.977            0            0            0      1809.35    1409.8293     666.3202    193.89196   -185.21765   -619.34455 
   89000    551.31839   -248.73568    1625.1165       21.977       21.977       21.977            0            0            0    2356.3667    154.33427    2364.6485    352.59887    75.772699    568.22444 
   89500    562.63945   -250.67386    1019.8679       21.977       21.977       21.977            0            0            0    742.63001    1336.1142    980.85963    868.17228    277.59516    177.18153 
   90000    583.74276   -249.53068     1593.158       21.977       21.977       21.977            0            0            0    1530.5572    768.77402    2480.1427   -165.18546    443.64982   -33.207515 
   90500    589.85842   -248.83077    1562.1718       21.977       21.977       21.977            0            0            0    2070.8916    1548.9174    1066.7066     207.2419   -172.72876   -92.229939 
   91000    551.26967   -250.90284    886.83177       21.977       21.977       21.977            0            0            0    1490.8329     825.3274    344.33505   -945.24144   -449.41998    398.91909 
   91500    525.19835    -251.2716    801.80799       21.977       21.977       21.977            0            0            0    847.69843    483.43558    1074.2899   -254.37708     -2.49381   -461.32398 
   92000    522.46005   -248.90286    1562.1045       21.977       21.977       21.977            0            0            0    2753.4649    719.26286    1213.5856   -108.59927    104.09018    374.53886 
   92500    570.13661    -248.3745     1761.438       21.977       21.977       21.977            0            0            0    1154.5951    2476.4086    1653.3102    191.06085   -272.53451    250.90445 
   93000    589.84341    -250.9368    1218.3177       21.977       21.977       21.977            0            0            0    562.94558    1393.2209    1698.7866   -352.53059   -341.89813   -456.34106 
   93500    575.64817   -251.08708    1097.7866       21.977       21.977       21.977            0            0            0    592.52269     1293.391     1407.446   -28.912096   -166.20988   -609.65372 
   94000    528.92111   -248.83585    1620.9314       21.977       21.977       21.977            0            0            0    1851.1633    935.51108    2076.1199    154.27453   -388.62981    360.61451 
   94500    492.62332   -250.43648    796.63255       21.977       21.977       21.977            0            0            0     1557.746    823.57771    8.5738862    318.77026     110.0704   -64.618858 
   95000    549.26623   -250.65927    1069.0026       21.977       21.977       21.977            0            0            0    1048.7518    913.02435    1245.2316   -248.46614    -522.3356    600.09729 
   95500    582.67243   -249.79606    1579.2383       21.977       21.977       21.977            0            0            0    2119.8035    1747.7225    870.18876   -436.19449    346.88662   -264.85055 
   96000    614.10076   -249.36938    1707.5977       21.977       21.977       21.977            0            0            0    881.09601    2043.7784    2197.9186    228.72512    51.237527    -291.7979 
   96500    571.34694   -250.51296    1186.7529       21.977       21.977       21.977            0            0            0    1090.3421      1696.91     773.0066    22.984779   -369.93154    600.05113 
   97000    549.17263   -249.67025    1279.8483       21.977       21.977       21.977            0            0            0     1851.714    1112.6016    875.22924   -507.24372    363.21213    422.16367 
   97500    470.45032   -248.63284    1437.2002       21.977       21.977       21.977            0            0            0    1462.7479    741.79787    2107.0547    634.04542    16.944818   -642.87319 
   98000    528.29406   -249.45871     1311.725       21.977       21.977       21.977            0            0            0    985.35695    1654.5986    1295.2195   -57.321134   -771.26921    71.545168 
   98500    548.44708   -249.52063    1536.3198       21.977       21.977       21.977            0            0            0    1368.5947    1528.6007    1711.7641     -171.226    85.328116    108.69531 
   99000    520.85546   -248.39835    1379.3793       21.977       21.977       21.977            0            0            0    1514.8165    837.18922    1786.1322    436.95708    216.99815   -118.69237 
   99500    562.22746   -248.11769    1927.2173       21.977       21.977       21.977            0            0            0    1579.2689    2542.9441     1659.439    520.00815    295.67916    223.22152 
  100000    529.11348    -246.9877    1931.0595       21.977       21.977       21.977            0            0            0    2219.2987    1822.7151    1751.1646    26.700584   -263.52932    205.60565 
  100500    551.98965   -250.11436    1179.1712       21.977       21.977       21.977            0            0            0    2592.8122     460.1853     484.5161   -707.69671    422.30832     -354.234 
  101000    515.57417   -250.36226    848.81567       21.977       21.977       21.977            0            0            0    1834.7515    629.95917    81.736298    -437.9293    108.30338    3.1477129 
  101500     576.7967   -250.42065    1232.6275       21.977       21.977       21.977            0            0            0    582.69806    1203.1667    1912.0178   -483.58671    702.17443    496.90623 
  102000    552.33329    -249.7167    1610.5635       21.977       21.977       21.977            0            0            0    1916.4598    772.25496    2142.9758   -156.50798    442.89147    779.32984 
  102500    550.70027   -249.53095    1469.8244       21.977       21.977       21.977            0            0            0    1742.9436    1180.8469    1485.6827   -159.76792   -308.20556    410.55763 
  103000    582.81832     -249.614    1539.1466       21.977       21.977       21.977            0            0            0    1433.1956    2326.3962    857.84801     616.2772   -225.27319   -1103.7133 
  103500     565.9399   -250.52485    945.23459       21.977       21.977       21.977            0            0            0    1650.1949    1129.9854    55.523519    188.20664   -867.26127   -19.033895 
  104000    554.22247   -249.54598    1299.5071       21.977       21.977       21.977            0            0            0    1897.6078     1156.265    844.64844    444.37191    81.867861   -879.03604 
  104500     558.2014   -250.65879    1316.5592       21.977       21.977       21.977            0            0            0    1084.1431    2192.7694    672.76495    215.23633    -212.7913    266.15793 
  105000    526.31725   -251.27277    538.41895       21.977       21.977       21.977            0            0            0    936.85801    559.54488    118.85397    550.34109     -506.816     141.6776 
  105500    528.66814   -249.71833    1138.8731       21.977       21.977       21.977            0            0            0    1253.5552    817.60969    1345.4544    746.82085    276.31789   -238.26451 
  106000    531.65278   -249.16999    1588.6542       21.977       21.977       21.977            0            0            0    1221.4301    1552.5207    1992.0119   -391.60898   -849.78163   -272.34867 
  106500    576.73123   -251.02427    1089.5677       21.977       21.977       21.977            0            0            0    1527.5048    524.37169    1216.8264    364.13288    610.85095    114.47682 
  107000    533.82221   -250.15948     1178.982       21.977       21.977       21.977            0            0            0    2024.4216    492.94951    1019.5748    62.214247   -23.587051      185.098 
  107500    541.33188   -250.15079    1130.3737       21.977       21.977       21.977            0            0            0    1461.4436     217.3937    1712.2839   -113.82126   -48.539481    536.73223 
  108000    609.49361    -248.3654    1810.2818       21.977       21.977       21.977            0            0            0    1443.2689    1703.3391    2284.2376    769.92565   -384.75999    421.87555 
  108500    545.83494   -251.29067     763.7883       21.977       21.977       21.977            0            0            0    1102.5828    797.59469    391.18736    468.93905    931.01542    502.88762 
  109000    570.41068   -250.12806    1423.8642       21.977       21.977       21.977            0            0            0    1993.8558    2064.0857    213.65098    545.75869    55.776033    50.660752 
  109500    531.19559   -250.93875    1113.9779       21.977       21.977       21.977            0            0            0    1696.7281     942.8761    702.32941    111.53512    155.85736   -251.06444 
  110000    534.51954   -250.88041    892.41111       21.977       21.977       21.977            0            0            0     2173.443   -256.95733    760.74764   -100.77557   -193.98603    634.50635 
  110500     572.9347   -250.92402    1057.9167       21.977       21.977       21.977            0            0            0    1234.0786    1255.6859    683.98572   -16.828552    -232.8103    81.395969 
  111000    528.89707   -249.84496    1174.5084       21.977       21.977       21.977            0            0            0    1466.8925    603.48671    1453.1459     -694.714    100.08387   -10.348574 
  111500    572.64167   -250.74637    1411.8291       21.977       21.977       21.977            0            0            0     657.4994     2256.953    1321.0347    568.76065    858.81507    208.59734 
  112000    539.64857   -249.31753    1241.2019       21.977       21.977       21.977            0            0            0    1611.6335    1413.6364    698.33587    1041.9488    19.888725   -709.77459 
  112500    526.99298   -250.13366    1048.0103       21.977       21.977       21.977            0            0            0    1644.2554    211.03996    1288.7354    150.23952    1.3488212   -337.99006 
  113000     543.4843   -250.38099    1285.8329       21.977       21.977       21.977            0            0            0    1851.4089    1009.4889    996.60097    9.8165954   -392.41317   -214.03681 
  113500    532.01181   -248.44987    1949.1723       21.977       21.977       21.977            0            0            0    2413.3351    297.51913    3136.6626    76.201507   -383.96944   -139.22247 
  114000    552.29936   -251.70215    744.47947       21.977       21.977       21.977            0            0            0    1263.5346    366.56239    603.34146   -588.54816    444.82657    937.70641 
  114500    545.39634   -250.76194    1036.1377       21.977       21.977       21.977            0            0            0    1535.3369    324.78686    1248.2894   -232.98446     432.5879   -121.94207 
  115000    575.68513   -250.21878    1107.3844       21.977       21.977       21.977            0            0            0    1841.9179     1416.166    64.069477    665.86166   -101.28141   -324.89857 
  115500    570.46842   -250.73188    961.35331       21.977       21.977       21.977            0            0            0    1748.0528    931.59617    204.41093    79.698573    161.89356    702.15266 
  116000    537.38099    -248.6044    1851.2773       21.977       21.977       21.977            0            0            0    2069.3109    1948.1429    1536.3779    198.55949   -454.54867   -282.40667 
  116500    573.14263   -249.22394    1634.1829       21.977       21.977       21.977            0            0            0    340.41287    2619.7245    1942.4115    29.120824    474.73115   -566.52038 
  117000    537.96237   -249.67643    1340.2438       21.977       21.977       21.977            0            0            0    585.94714    2039.3394     1395.445    451.25287    136.48213   -55.596278 
  117500    527.88145   -249.98564    1159.7064       21.977       21.977       21.977            0            0            0    688.84598    1286.5271    1503.7462   -451.32329   -212.43832   -157.76583 
  118000    567.41031   -247.90599    2109.5991       21.977       21.977       21.977            0            0            0    1176.8589    2816.0794    2335.8592    970.35452    299.16211   -178.33809 
  118500    597.40964   -250.57052    1355.9269       21.977       21.977       21.977            0            0            0    295.65251    1611.5592     2160.569   -584.19088     267.6941    434.36027 
  119000    538.68528   -248.40751    1679.9424       21.977       21.977       21.977            0            0            0    772.47355    2790.0503    1477.3033   -1052.5852   -869.46322   -300.31493 
  119500    573.20594   -247.70571    1778.9946       21.977       21.977       21.977            0            0            0    1607.4012     2128.708    1600.8744   -734.33084   -351.12457    198.75718 
  120000     556.3145   -251.13385    944.61361       21.977       21.977       21.977            0            0            0    2211.7081    190.48552    431.64718    30.365788   -229.51349    129.69673 
  120500    554.65506   -249.54464    1537.8472       21.977       21.977       21.977            0            0            0    792.69416    1593.2122    2227.6352   -287.53279   -116.60812     509.9499 
  121000    569.09041   -249.76977    1323.7581       21.977       21.977       21.977            0            0            0    1732.8486    345.86388    1892.5618   -213.74972    570.23172   -112.25488 
  121500    569.61826    -250.8789    1251.5814       21.977       21.977       21.977            0            0            0    1453.4221    1068.1933    1233.1288   -4.9743877    456.58807   -497.41055 
  122000    657.62781    -249.1928    1509.2674       21.977       21.977       21.977            0            0            0    1721.3658    1072.9023    1733.5341   -186.22655   -204.03407    473.76208 
  122500     560.5112   -249.49436    1688.3599       21.977       21.977       21.977            0            0            0    1761.8951    2374.2197    928.96497   -659.13478   -486.34164    524.30078 
  123000    542.96879   -250.53004    1070.5817       21.977       21.977       21.977            0            0            0    1269.8099    653.07428    1288.8608    289.17342     406.1949   -202.55674 
  123500    599.56525   -249.02404    1793.7774       21.977       21.977       21.977            0            0            0    2766.8556    1003.9894    1610.4871   -285.91466    108.13947   -28.174402 
  124000    574.39597   -248.16602    1798.7307       21.977       21.977       21.977            0            0            0    1057.2709    2517.5858    1821.3352   -337.58547   -51.058931   -264.64906 
  124500    518.40779   -250.02732    1349.6726       21.977       21.977       21.977            0            0            0    1314.1691    408.53929    2326.3093    820.37381    -715.0975   -372.98044 
  125000    499.45443   -250.11892    1125.0491       21.977       21.977       21.977            0            0            0    1382.5024    1499.0818     493.5632   -691.33832    452.87594     372.0204 
  125500     606.4007    -249.2593    1731.7319       21.977       21.977       21.977            0            0            0    2517.8991    1243.9829    1433.3138   -299.22741   -312.22764    339.85695 
  126000     553.3416   -249.88963    1231.8115       21.977       21.977       21.977            0            0            0    1060.5107    1157.8294    1477.0942   -462.76938   -150.23571   -351.86345 
  126500     553.9638   -250.70838    986.86437       21.977       21.977       21.977            0            0            0    979.96326    932.55184     1048.078   -179.62627   -299.40263    750.72121 
  127000    498.47327   -248.95237    1473.0037       21.977       21.977       21.977            0            0            0    1951.9502    932.80563    1534.2553    211.72666    514.01744    529.86117 
  127500    551.57478   -249.79402    1173.6124       21.977       21.977       21.977            0            0            0    489.42682    1733.1204    1298.2901   -103.70115   -277.59631    209.88211 
  128000    572.37596   -250.94869    962.00125       21.977       21.977       21.977            0            0            0   -722.49299    1716.1932    1892.3035   -668.60892   -821.18421   -324.78342 
  128500    622.17148   -249.97665    1475.9832       21.977       21.977       21.977            0            0            0    579.56578    1758.1146    2090.2691    59.594185     600.4636   -462.13362 
  129000    550.05042   -249.71451    1648.6247       21.977       21.977       21.977            0            0            0    1837.0929    2050.8851     1057.896    101.79158   -71.964174   -651.27277 
  129500    545.37544    -249.9188    1201.1341       21.977       21.977       21.977            0            0            0    1395.5432    585.22736    1622.6317    477.13621   -90.401032    545.03744 
  130000    542.17522   -250.94615    863.64233       21.977       21.977       21.977            0            0            0    638.52254    715.49839    1236.9061   -336.93284   -654.03675    -42.37561 
  130500    537.80987   -249.07145    1383.4629       21.977       21.977       21.977            0            0            0    1930.8244    874.52658    1345.0377   -573.99632   -645.02757    736.57677 
  131000    547.29165   -250.26422    1255.6572       21.977       21.977       21.977            0            0            0    1053.0043    1337.0369    1376.9305    51.472689    99.657658    950.93408 
  131500    539.50689   -250.90071    696.77839       21.977       21.977       21.977            0            0            0    549.56149    199.61729    1341.1564   -258.76778    91.705081   -384.42516 
  132000    543.47179    -252.3159    523.03206       21.977       21.977       21.977            0            0            0    305.60875    1055.0924      208.395   -253.95482    90.542195    212.27488 
  132500     628.9856   -248.28546    1915.4958       21.977       21.977       21.977            0            0            0    2423.6127    1435.7489    1887.1258   -434.83738    -91.25421   -428.89074 
  133000    570.35639   -247.93801    2310.0789       21.977       21.977       21.977            0            0            0    2383.2063    1571.9235    2975.1069   -313.39176   -103.66608   -497.77103 
  133500     570.3339   -250.60908     1090.805       21.977       21.977       21.977            0            0            0    1240.8288     786.5767    1245.0095    268.94301    33.796805   -1026.3549 
  134000    533.33915    -251.7257    592.62926       21.977       21.977       21.977            0            0            0    149.86227     697.1316     930.8939   -188.79015    142.97355   -536.13256 
  134500    500.96167   -249.84024     1197.111       21.977       21.977       21.977            0            0            0    1041.1335    1657.7461    892.45344    513.57337    252.56414    75.353045 
  135000    532.99391   -250.92291    1017.0221       21.977       21.977       21.977            0            0            0    1686.8191    1236.2119    128.03543    -658.7409   -480.91503   -72.959838 
  135500    557.24971   -249.93088    1510.3355       21.977       21.977       21.977            0            0            0    1716.6736    2164.8253    649.50763     73.89307   -72.204991    364.06502 
  136000    575.69823   -249.86019     1224.153       21.977       21.977       21.977            0            0            0    1149.5479    372.71043    2150.2007   -96.145242   -552.90645    613.77073 
  136500    494.76545   -249.92615    1109.3916       21.977       21.977       21.977            0            0            0    1819.4135    1327.8245    180.93667    -392.2789    248.25612   -578.95376 
  137000    576.86662   -250.63296    1136.7434       21.977       21.977       21.977            0            0            0    1975.7932    1092.4736    341.96347    678.04668   -198.11728    236.85069 
  137500    569.70617   -248.35441    2102.0651       21.977       21.977       21.977            0            0            0    1994.1321     2319.994    1992.0693    211.85753   -309.02517   -189.13254 
  138000    529.05641   -248.10045    1799.9543       21.977       21.977       21.977            0            0            0    1811.7954    1774.2539    1813.8136    172.23297    846.42176   -528.72962 
  138500    552.53137    -250.6501    1059.6675       21.977       21.977       21.977            0            0            0    187.73188    1192.1227    1799.1479    1.6409524   -434.72172    330.19635 
  139000    552.40671   -249.01244    1428.3154       21.977       21.977       21.977            0            0            0    1775.0521    899.11446    1610.7797    629.19252    84.159618   -495.27183 
  139500    526.54395   -250.12455    1051.1972       21.977       21.977       21.977            0            0            0    748.25857    248.49661    2156.8365   -309.44625    237.55099   -427.49578 
  140000    580.74092   -249.93055    1333.3186       21.977       21.977       21.977            0            0            0    637.94993    1813.9267     1548.079    -211.7796   -701.08858   -5.3835016 
  140500    560.21221   -248.63926    1898.8394       21.977       21.977       21.977            0            0            0    2292.2855    1908.9114    1495.3212    55.240613   -768.97345    24.907097 
  141000    553.87692   -250.48659    1024.4803       21.977       21.977       21.977            0            0            0    1843.7624     862.8209     366.8577    47.642306    470.21884   -136.69136 
  141500    538.22014   -249.22423    1415.0166       21.977       21.977       21.977            0            0            0    826.28375    2546.5397    872.22632   -300.29131    156.06935    515.53909 
  142000    544.97345   -248.14881    1806.1381       21.977       21.977       21.977            0            0            0    1466.8207    1118.9586    2832.6351   -298.31308    98.733128    368.68344 
  142500    554.63544   -249.63611    1317.7314       21.977       21.977       21.977            0            0            0    1650.4309    838.07204    1464.6914    179.14036   -780.49332    821.79941 
  143000    522.08399    -248.2804    1755.4398       21.977       21.977       21.977            0            0            0     2022.809    1880.5956    1362.9148   -277.55987   -532.13299   -689.55735 
  143500    527.31627   -250.68627    940.00008       21.977       21.977       21.977            0            0            0    983.98109    193.18371    1642.8354    674.38569    291.52996    53.216329 
  144000    533.95988   -249.93908    1263.5544       21.977       21.977       21.977            0            0            0    555.34651    1987.0077    1248.3089    165.04288   -996.18052    54.571118 
  144500    537.27901    -248.8951    1512.0649       21.977       21.977       21.977            0            0            0    733.03237    2267.4671    1535.6953   -263.33087    -570.5976   -544.21735 
  145000    568.95906   -250.85944    1132.0492       21.977       21.977       21.977            0            0            0     1209.615    944.76362    1241.7689    415.08491    367.93929   -782.30991 
  145500    546.84193   -249.33228    1645.4038       21.977       21.977       21.977            0            0            0    1148.9758    2399.9104    1387.3251   -796.21737    90.071271     250.0107 
  146000    537.75487   -250.94077    1171.9749       21.977       21.977       21.977            0            0            0    1188.4712    1108.3431    1219.1106    515.19933    304.59548    164.92004 
  146500    530.52727   -250.34428     1186.156       21.977       21.977       21.977            0            0            0    1140.0364    1411.7535     1006.678    338.54553    700.75468    -251.3949 
  147000    509.27928   -250.20444    977.56089       21.977       21.977       21.977            0            0            0    1572.6393    389.48389    970.55951    51.270202    511.85749   -542.15761 
  147500    536.07587   -250.05431    1229.6542       21.977       21.977       21.977            0            0            0     959.7111    1740.3538    988.89764   -300.70636    94.909655   -435.23373 
  148000    517.59053   -250.22501    937.16246       21.977       21.977       21.977            0            0            0    1038.3371    1356.0087    417.14156   -551.49334    583.10503   -203.07394 
  148500    572.09215   -248.78812    1771.1163       21.977       21.977       21.977            0            0            0    1985.0498    1611.2576    1717.0415    472.85757    -137.1734   -11.838081 
  149000    500.18734   -249.88469    1212.3807       21.977       21.977       21.977            0            0            0    1475.6954    1603.6541    557.79274    130.09188   -206.50447    519.87059 
  149500     563.6081   -251.00821    1062.7212       21.977       21.977       21.977            0            0            0    807.04902    1106.7971    1274.3176    -32.82064   -270.29432    112.88098 
  150000    510.24803   -250.48272     1229.154       21.977       21.977       21.977            0            0            0    1336.3169    1702.8799    648.26528     399.2234   -1027.1921    454.28679 
  150500    545.64134   -251.20596    784.13342       21.977       21.977       21.977            0            0            0     642.9655    1144.9464    564.48835   -162.41408   -137.37235    239.47721 
  151000    568.88253   -251.25648    826.25363       21.977       21.977       21.977            0            0            0    328.12558    1323.3958    827.23954     -244.329    49.875084    510.02162 
  151500    574.51821   -249.21741    1724.7915       21.977       21.977       21.977            0            0            0    2490.2481    1062.6946    1621.4318   -361.90946   -274.92031    157.71934 
  152000    565.72301   -250.01596    1481.5954       21.977       21.977       21.977            0            0            0     2320.962    1202.1071    921.71701    12.547467   -646.69313   -622.85814 
  152500    553.13043   -249.37723    1624.0513       21.977       21.977       21.977            0            0            0    2306.6616    1049.7927    1515.6997   -269.33774   -220.04747    658.83292 
  153000    521.19503   -250.36785    1265.3216       21.977       21.977       21.977            0            0            0    701.14636    1436.8506     1657.968   -3.8123758    593.97493   -538.66219 
  153500    559.42393   -249.30621    1684.9173       21.977       21.977       21.977            0            0            0    1948.4433    1658.0024    1448.3061    145.07449    485.07459   -1410.2809 
  154000    504.52753   -248.72289    1493.2082       21.977       21.977       21.977            0            0            0    333.87377    2195.7977    1949.9531    302.31904   -872.38688    354.03301 
  154500    518.73513   -250.46252    913.89172       21.977       21.977       21.977            0            0            0    1020.9056    1094.4731     626.2965    360.77893    447.96781    514.68991 
  155000    571.23091   -250.32223    1231.4873       21.977       21.977       21.977            0            0            0    889.59304    967.47118    1837.3978   -159.46916    396.47727    928.86675 
  155500    529.99989   -249.50061     1281.055       21.977       21.977       21.977            0            0            0    1003.3248    1581.4719    1258.3684    49.112077   -142.79773    806.86413 
  156000    508.02795   -250.52948    852.97295       21.977       21.977       21.977            0            0            0    809.30244    1126.5262    623.09021    309.01729    307.25241   -429.71523 
  156500    553.14602   -249.48961     1324.374       21.977       21.977       21.977            0            0            0    1151.7392    1168.5464    1652.8366    -299.4708    470.71648   -606.75433 
  157000    518.73329   -250.13334    1012.5214       21.977       21.977       21.977            0            0            0    849.08976     1174.759    1013.7153    424.99793   -79.049326   -21.070916 
  157500    556.13439   -248.55253    1642.9775       21.977       21.977       21.977            0            0            0    1465.5729    778.07816    2685.2813    201.67214    -570.5227    731.92458 
  158000    527.49571   -249.83345    1358.3255       21.977       21.977       21.977            0            0            0    1846.5604    566.45577    1661.9604   -719.65741    113.22142   -276.54237 
  158500    505.60571    -248.8105     1330.019       21.977       21.977       21.977            0            0            0    804.89528    1832.3318    1352.8298   -302.21034    30.297554    539.31855 
  159000     594.1519    -248.2011    2140.9309       21.977       21.977       21.977            0            0            0    2557.3989    1827.4831    2037.9108    45.496434    272.60456   -105.36138 
  159500    515.50824   -250.10088     1267.537       21.977       21.977       21.977            0            0            0    1128.1789    1379.4738    1294.9584   -18.964206    654.90726   -970.57734 
  160000    540.42985   -250.62317    977.96662       21.977       21.977       21.977            0            0            0    293.86367    1211.9953    1428.0409    748.75757   -368.07306   -552.56168 
  160500    530.42838   -250.30398    1175.2484       21.977       21.977       21.977            0            0            0    985.01418    898.21566    1642.5154   -639.81612    262.55205    769.62598 
  161000    538.61259    -248.4562    1705.1913       21.977       21.977       21.977            0            0            0    2986.5446    1233.9286     895.1007   -812.42506   -628.66344    697.25579 
  161500    614.94148   -248.05456    2157.3525       21.977       21.977       21.977            0            0            0    2275.3407    2178.9189    2017.7979    48.594179    422.12225    638.32315 
  162000    573.03149   -250.59775    1322.5864       21.977       21.977       21.977            0            0            0    678.00256     2396.727     893.0298   -885.50592    82.954985   -455.04349 
  162500    540.87654   -249.36026    1405.4777       21.977       21.977       21.977            0            0            0    1495.7529    1889.7723    830.90795     1292.434   -361.49762    795.19466 
  163000    553.80119   -249.30767     1582.156       21.977       21.977       21.977            0            0            0    1805.7187    2080.5906    860.15877   -237.22722   -473.52268   -1238.2318 
  163500    569.60921   -250.40143     1164.685       21.977       21.977       21.977            0            0            0    1328.9053    704.44593    1460.7036   -252.06064    193.88339    654.04141 
  164000    554.50511   -250.87284    1163.7501       21.977       21.977       21.977            0            0            0    827.46716    1455.7577    1208.0256    153.21643   -119.28866   -77.049868 
  164500     555.8563     -250.647    1122.8841       21.977       21.977       21.977            0            0            0    1710.6918    357.79646    1300.1641    88.763649   -459.61935    43.084061 
  165000    536.16141   -249.52792     1424.714       21.977       21.977       21.977            0            0            0      1387.51    661.77263    2224.8594   -204.18269   -21.096139   -111.11674 
  165500    550.39122   -250.16614    1363.6957       21.977       21.977       21.977            0            0            0    1021.8194    2010.2685    1058.9993    785.53132    498.02892   -133.72208 
  166000    608.17408   -248.11667    2099.6847       21.977       21.977       21.977            0            0            0    1735.9554    2740.1295    1822.9693    271.75016    297.60992    254.04859 
  166500    502.83962   -249.50861    1511.0956       21.977       21.977       21.977            0            0            0    1141.3617    1573.7677    1818.1572    335.43478    256.70379    105.78285 
  167000    522.47658   -250.66494    1064.6907       21.977       21.977       21.977            0            0            0    1335.4307    936.99629    921.64508   -216.26535    -548.6066   -76.831006 
  167500    561.41279   -249.68621    1359.6992       21.977       21.977       21.977            0            0            0    1495.8146    1150.4017    1432.8812    371.32481   -334.50889   -845.90554 
  168000    535.39078   -248.72835    1528.0739       21.977       21.977       21.977            0            0            0    1954.6747    1541.2165    1088.3304    419.81979    130.57955   -313.40731 
  168500    537.95675   -247.71434    1938.6623       21.977       21.977       21.977            0            0            0     3159.678    859.97984     1796.329   -339.67707    384.15634   -350.05019 
  169000    543.01894   -249.36839    1491.9931       21.977       21.977       21.977            0            0            0    2174.5138    1472.9034    828.56195     533.8305   -458.53511   -328.00888 
  169500     554.0293   -249.09896    1497.0325       21.977       21.977       21.977            0            0            0    2407.4277    733.85166    1349.8181    -151.6986   -521.59688   -186.94665 
  170000     548.6146   -249.01088    1698.9593       21.977       21.977       21.977            0            0            0    1785.6458    2055.6035    1255.6285   -127.36775    237.67036   -45.970558 
  170500    522.15311   -250.09692    1113.9504       21.977       21.977       21.977            0            0            0    257.49695    1204.3148    1880.0395   -621.35329    37.275827   -322.16618 
  171000    591.50105   -249.40609    1401.6399       21.977       21.977       21.977            0            0            0    2060.6952    910.24364    1233.9809   -325.43863   -313.16543    785.66964 
  171500    551.29906   -247.69391    2188.2719       21.977       21.977       21.977            0            0            0    3026.2544    1366.3155    2172.2458   -676.07812   -129.11001   -225.20792 
  172000    526.16579   -249.19192    1721.1664       21.977       21.977       21.977            0            0            0    1486.8268    1325.8554    2350.8169   -355.69075   -450.32087    728.03173 
  172500    520.35306   -250.50444    1291.1481       21.977       21.977       21.977            0            0            0    1170.9459     377.4659    2325.0326   -297.65197   -196.88975   -372.29013 
  173000    534.20606   -250.03678    1269.9659       21.977       21.977       21.977            0            0            0     420.9003    2234.1312    1154.8663    508.34934   -209.27716    52.253946 
  173500    606.63099   -249.72449    1593.7134       21.977       21.977       21.977            0            0            0    1611.0409    1267.5671    1902.5322    843.97818    195.63467   -381.00373 
  174000    546.43496   -249.66502    1269.3418       21.977       21.977       21.977            0            0            0    1494.3239    1603.5464    710.15506    200.44063   -178.65537    -139.7756 
  174500    598.46732   -249.97166     1207.076       21.977       21.977       21.977            0            0            0    900.42656    1992.4486    728.35298    113.11194    115.14236    506.59974 
  175000    538.43675   -249.56937    1362.0509       21.977       21.977       21.977            0            0            0    2132.8886    717.52311     1235.741    221.30505    313.68275    85.031241 
  175500    547.88256   -250.56843     928.4747       21.977       21.977       21.977            0            0            0    1329.4009    115.50023     1340.523    554.52309    117.02621    798.79999 
  176000    537.37875   -249.70004    1116.9919       21.977       21.977       21.977            0            0            0    1764.6647    1553.5735    32.737603    311.05389    1.6778772    150.43258 
  176500    533.95061   -249.26657     1259.012       21.977       21.977       21.977            0            0            0    738.55895    1058.1034    1980.3735   -468.93034    464.65869    1095.2535 
  177000    529.25801   -249.90778    1260.6855       21.977       21.977       21.977            0            0            0    1011.3725    693.45728    2077.2266    397.66517    826.50583    269.05105 
  177500    537.52095    -250.6132    1000.4617       21.977       21.977       21.977            0            0            0    547.19644    1356.0984    1098.0902   -15.256896   -657.51225    225.52334 
  178000    557.70812   -250.24397    1257.4076       21.977       21.977       21.977            0            0            0    1215.5889    1307.8791    1248.7547   -326.25354    247.88717    -254.9295 
  178500    542.56202   -247.85424    2033.1309       21.977       21.977       21.977            0            0            0    2340.1391    1423.4335    2335.8202     8.451039   -117.34727   -1357.9482 
  179000    580.22562   -249.70323    1658.2248       21.977       21.977       21.977            0            0            0    1232.1993    1521.5214    2220.9536   -130.86872    1579.0126   -183.69958 
  179500    592.53804   -249.03697    1626.9971       21.977       21.977       21.977            0            0            0    944.53565    1469.9403    2466.5153   -319.54913    218.43501   -473.73101 
[...]
  454500    577.28101   -249.21372    1516.7568       21.977       21.977       21.977            0            0            0    1529.9267    1749.1369    1271.2068   -1376.2386   -455.55268    57.987195 
  455000    531.70152   -247.25195    2079.5094       21.977       21.977       21.977            0            0            0    1915.5198    1734.2328    2588.7757    293.65828    562.76798    137.78512 
  455500    532.75969   -249.46826    1337.8876       21.977       21.977       21.977            0            0            0    1819.0403    605.63216    1588.9903    32.033693    484.85426   -294.58167 
  456000    494.30454   -249.78402    1054.8855       21.977       21.977       21.977            0            0            0    366.64516    1551.6593    1246.3519    59.472966   -515.80377    1117.8894 
  456500     508.2689   -249.78128    1387.7317       21.977       21.977       21.977            0            0            0    1523.6661    1287.6505    1351.8785    849.50705   -298.25163    365.00757 
  457000     518.2842   -251.57427    856.18055       21.977       21.977       21.977            0            0            0    1287.6488    787.42405     493.4688    -17.63029    38.820919   -628.58093 
  457500    495.46096   -250.36956    1019.2415       21.977       21.977       21.977            0            0            0    802.45081    605.55406    1649.7196   -205.00363    528.01288    321.42233 
  458000    527.51151   -249.53873     1352.769       21.977       21.977       21.977            0            0            0    375.77154    2476.6085    1205.9269    -100.7797   -412.33614   -143.29306 
  458500    518.53522   -249.99092     990.1391       21.977       21.977       21.977            0            0            0     1750.838     1079.173    140.40622    211.91169   -14.116268    422.71922 
  459000    552.04224   -247.85558    1898.6155       21.977       21.977       21.977            0            0            0    1082.0762    3803.1131    810.65729    -2.702685   -405.29713    120.54282 
  459500    556.52498    -249.7231    1653.2962       21.977       21.977       21.977            0            0            0     1391.997    1965.6214    1602.2703   -844.83021    372.48374   -21.518697 
  460000    611.23928   -251.25956    1051.3448       21.977       21.977       21.977            0            0            0    1119.0389     1293.574    741.42142   -482.46904    497.02384   -485.40765 
  460500    548.32436   -251.18411    681.22258       21.977       21.977       21.977            0            0            0    1029.7903    837.36909     176.5084    120.64438   -717.37088    70.954692 
  461000    644.02035   -249.89838    1759.2515       21.977       21.977       21.977            0            0            0    1977.8099    1651.6775    1648.2671   -970.13569    477.04901    2.2777087 
  461500    570.35521    -248.1905    1718.2879       21.977       21.977       21.977            0            0            0    1293.1119    987.48248    2874.2694   -616.70537   -72.797122     612.5328 
  462000     604.0083   -249.49148    1514.7316       21.977       21.977       21.977            0            0            0    2135.9926    1396.1662    1012.0361   -130.38377    -1116.062   -275.97525 
  462500    547.03621   -251.05215    997.17156       21.977       21.977       21.977            0            0            0    1471.8008    1128.3841     391.3297   -487.13414   -736.37386    -528.5566 
  463000    553.62247   -250.49324    1395.7637       21.977       21.977       21.977            0            0            0    2082.3717    1592.4431    512.47643    28.335045   -327.36235    -205.6158 
  463500    577.67657   -250.44223    1169.4641       21.977       21.977       21.977            0            0            0    508.29497    944.18606    2055.9114   -417.90565    -202.1705    245.87379 
  464000     585.9606   -251.18455    1091.7308       21.977       21.977       21.977            0            0            0    341.62375    674.70569    2258.8629   -423.20465   -610.70017    265.85773 
  464500    532.36171   -248.37872    1791.9289       21.977       21.977       21.977            0            0            0    1268.3655    2157.3268    1950.0943   -285.78386     29.14326    107.80435 
  465000     595.0375   -249.33102    1756.3127       21.977       21.977       21.977            0            0            0    1054.7389    1592.2384     2621.961   -71.902587     485.8377   -202.45067 
  465500    581.52651   -250.40485    1359.7204       21.977       21.977       21.977            0            0            0    1400.8902    710.65763    1967.6134    344.12143    294.04026    291.91427 
  466000    511.39138   -247.17739    1961.1342       21.977       21.977       21.977            0            0            0    2069.1562    2820.7299    993.51645   -212.35803   -206.40205    -444.7435 
  466500     537.3875   -250.65194    957.13313       21.977       21.977       21.977            0            0            0    723.49189     1071.395    1076.5125   -155.63588    76.959067    398.31304 
  467000    568.37875    -249.9559    1558.2901       21.977       21.977       21.977            0            0            0    1713.3602    1702.7228    1258.7874   -1398.4042   -195.94122    -52.83869 
  467500     553.4311   -249.60379    1337.1376       21.977       21.977       21.977            0            0            0    1429.0651    27.902378    2554.4453    572.55384   -18.344594   -692.15411 
  468000    533.90806   -250.49653    956.37963       21.977       21.977       21.977            0            0            0    469.20967    1492.3156    907.61365   -35.463792   -11.844989    392.68706 
  468500    520.00901   -251.22541    779.60015       21.977       21.977       21.977            0            0            0    87.795971     756.3878    1494.6167   -108.41789    85.257065    -137.7797 
  469000    540.44064   -251.21708    966.99375       21.977       21.977       21.977            0            0            0    749.27939    882.33463    1269.3672   -797.88136    379.10005     421.9459 
  469500    533.95167   -249.66618    1447.4254       21.977       21.977       21.977            0            0            0    1685.5497    617.45495    2039.2716    200.17668    664.52434   -832.99049 
  470000    524.56536   -251.41686    569.68761       21.977       21.977       21.977            0            0            0    421.80718    574.45442    712.80124    -380.9547    231.96734   -123.26853 
  470500    505.62748   -249.93032    1041.5212       21.977       21.977       21.977            0            0            0     610.6117    2055.0527    458.89909    321.87193    -51.45606     175.2137 
  471000    553.85799   -250.17011    1306.1196       21.977       21.977       21.977            0            0            0    966.15883    1723.1396    1229.0606    120.32725    336.40751    23.983791 
  471500    561.62186   -250.11923    1507.6009       21.977       21.977       21.977            0            0            0    2784.4671    217.83619    1520.4992   -6.9457959    11.094142   -20.363512 
  472000    537.77797   -250.95635    902.12663       21.977       21.977       21.977            0            0            0    724.70695    31.408759    1950.2642    669.70698   -225.54297   -513.66345 
  472500    560.11549   -251.18331    835.73583       21.977       21.977       21.977            0            0            0    629.96739    525.18372    1352.0564    227.27694   -380.55119   -129.03727 
  473000    503.33748   -248.26246    1534.3011       21.977       21.977       21.977            0            0            0    2464.4494    1358.1919    780.26195   -230.84477   -335.32728   -803.42921 
  473500    548.25699   -250.31796    1091.4222       21.977       21.977       21.977            0            0            0    1094.5224    782.60827     1397.136   -525.77457    143.08518    205.24998 
  474000    538.19415   -249.76681    1219.9187       21.977       21.977       21.977            0            0            0    1392.6053    1253.9491    1013.2018   -448.77307    675.69293   -117.20149 
  474500    556.01403   -248.89335    1661.8345       21.977       21.977       21.977            0            0            0    1610.1252    2345.6627    1029.7155   -331.73163     39.98476    654.85496 
  475000     546.7012   -252.48058    630.24245       21.977       21.977       21.977            0            0            0    208.35564    1444.9728    237.39896   -157.85113   -149.15606    286.76221 
  475500     585.7412   -249.73532      1264.47       21.977       21.977       21.977            0            0            0    1169.1246    1507.9212    1116.3643    439.97963    458.11078    262.55288 
  476000    497.46618   -250.24961    1165.9506       21.977       21.977       21.977            0            0            0    549.01278    1193.6411    1755.1978   -291.81359    324.37751   -271.96986 
  476500    533.91512   -251.55608     782.6635       21.977       21.977       21.977            0            0            0    1036.9834   -272.85782    1583.8649   -51.740223    745.57884    556.25577 
  477000    520.27216     -249.529    1202.0611       21.977       21.977       21.977            0            0            0    1250.7372    700.43794    1655.0081    153.45368    -841.4004    934.93256 
  477500    539.55355    -249.7034    1307.2836       21.977       21.977       21.977            0            0            0     1039.302    2486.1723    396.37637    144.44369   -561.85792   -139.86328 
  478000    572.16423   -249.55058     1425.813       21.977       21.977       21.977            0            0            0    986.31416    2317.5618    973.56314    537.95432    730.01247   -424.02928 
  478500    571.62474   -249.25864    1787.4353       21.977       21.977       21.977            0            0            0    1621.3059    2175.7128    1565.2872    575.09561   -666.05468   -588.08804 
  479000    539.90127   -249.50323     1601.145       21.977       21.977       21.977            0            0            0    1150.7187    1044.1494     2608.567   -777.40975    466.59655    764.22773 
  479500    509.80251   -248.93382    1551.4033       21.977       21.977       21.977            0            0            0    883.09895    1860.3018    1910.8092   -1319.6071   -346.54175   -555.67753 
  480000    576.90791   -249.04368    1417.6477       21.977       21.977       21.977            0            0            0    846.67831    2371.5433    1034.7214    193.94324    281.83531    457.94863 
  480500    569.60054   -250.24464    1490.7558       21.977       21.977       21.977            0            0            0    1460.6433    1293.2787    1718.3454    362.17009    65.686614   -378.35256 
  481000    570.29006   -249.78753    1510.4549       21.977       21.977       21.977            0            0            0    1420.9016    1848.5496    1261.9137   -163.30728    -416.2502   -214.36252 
  481500    534.35868   -250.18528    1233.8753       21.977       21.977       21.977            0            0            0    927.64912    1692.2342    1081.7427   -73.645319    -4.018847    144.17159 
  482000    524.01222   -251.71594    510.77071       21.977       21.977       21.977            0            0            0    615.43292    1131.6659   -214.78666    692.55412   -417.97788   -256.19377 
  482500    520.72118   -249.49939    1749.1645       21.977       21.977       21.977            0            0            0    1734.3125     1591.102    1922.0789    124.58054   -118.68328    481.37716 
  483000     501.4808   -248.15653    1578.1177       21.977       21.977       21.977            0            0            0    909.50509    1427.3295    2397.5186   -368.34519   -82.858426   -49.734835 
  483500     585.8408   -249.42202    1475.6269       21.977       21.977       21.977            0            0            0    1330.1568    1782.9555    1313.7685    560.52172    36.635679     383.7537 
  484000    495.55313   -250.64744    1085.9641       21.977       21.977       21.977            0            0            0    1610.2326    664.66951    982.99017   -100.48682    374.99727   -256.35682 
  484500    570.03013    -250.7272     1223.013       21.977       21.977       21.977            0            0            0    602.61039    1735.4035    1331.0251   -222.04718   -682.43505   -392.07955 
  485000    535.34398   -249.74702    1581.5441       21.977       21.977       21.977            0            0            0    1376.1885    1017.4116    2351.0321    308.22329   -598.88403   -38.897068 
  485500    585.49372   -249.34722    1745.2201       21.977       21.977       21.977            0            0            0    2253.4542    1713.9579    1268.2483    382.38789    233.93097    215.30518 
  486000    593.92911   -250.96375    1162.5574       21.977       21.977       21.977            0            0            0    1353.7748     1221.794    912.10342    439.61273   -274.27586    483.85918 
  486500    567.49771   -249.16941    1945.3539       21.977       21.977       21.977            0            0            0    1377.4777    2929.1136    1529.4704   -204.84726    271.88461    72.744196 
  487000    581.59013   -248.74243    1789.4554       21.977       21.977       21.977            0            0            0    2501.5695    1234.5625    1632.2341    179.87275    742.55414   -111.37583 
  487500    534.11864   -250.80221    1007.4357       21.977       21.977       21.977            0            0            0    926.27611    754.07819    1341.9529   -117.13044   -426.75629    134.52603 
  488000    565.81968   -250.11552    1541.2904       21.977       21.977       21.977            0            0            0    2024.0955    1070.1655    1529.6103     312.7462    314.55209    321.26796 
  488500    588.79119   -248.86603     1854.219       21.977       21.977       21.977            0            0            0    1308.0857    2062.6675    2191.9038    55.793784    376.28872     237.1318 
  489000    542.48541   -248.36938    1844.0474       21.977       21.977       21.977            0            0            0    2165.0498    2309.8763    1057.2162   -147.39916   -44.891479    237.57007 
  489500    569.87571   -250.21185    1162.7842       21.977       21.977       21.977            0            0            0    1589.4116    1995.8829   -96.941765    736.86336   -151.31714   -290.56519 
  490000    508.09998    -249.9593    1140.4419       21.977       21.977       21.977            0            0            0    1814.4444    182.97586    1423.9054    59.224844    -448.9508    -148.2307 
  490500    559.20233    -249.9601    1497.9917       21.977       21.977       21.977            0            0            0    1001.9042    1687.4826    1804.5883    -23.57588   -750.09137   -251.36806 
  491000    600.24174   -251.45006    948.64986       21.977       21.977       21.977            0            0            0    1027.0122    540.90449    1278.0329   -339.24183    -267.7717     194.0942 
  491500    515.88339   -250.17315    1160.8602       21.977       21.977       21.977            0            0            0    512.85888    476.67143    2493.0502   -211.52492   -363.23316   -389.62956 
  492000    595.40931   -249.31505    1916.0485       21.977       21.977       21.977            0            0            0    1989.5394    2065.7174    1692.8889   -799.49541    713.35296   -845.94551 
  492500    571.15982   -251.54123    922.04938       21.977       21.977       21.977            0            0            0    1477.8316    577.43435    710.88217   -390.15059    65.871472   -77.820757 
  493000    505.32758   -250.85773    853.60348       21.977       21.977       21.977            0            0            0    985.78796     1390.999    184.02346    -65.57038   -175.26124    563.19412 
  493500    577.55925   -249.99718    1466.5958       21.977       21.977       21.977            0            0            0    410.95564    1994.8498     1993.982   -115.76468   -615.75659   -205.75988 
  494000    586.58445   -249.62684    1328.4691       21.977       21.977       21.977            0            0            0    686.54896    580.63276    2718.2256   -641.93866    348.76544   -59.923616 
  494500    544.43788    -250.0751    1183.7396       21.977       21.977       21.977            0            0            0     708.2067    886.87509    1956.1369   -220.24803    302.84407   -553.05121 
  495000    541.00379    -250.1508    1109.3347       21.977       21.977       21.977            0            0            0    1246.4247    1049.5925    1031.9868    60.072261    965.91868     490.8403 
  495500    581.30091   -249.93271    1343.9867       21.977       21.977       21.977            0            0            0    1847.4516    225.71316    1958.7955    205.15377    160.97682    144.82833 
  496000    510.21273    -249.3999    1179.6874       21.977       21.977       21.977            0            0            0    1845.1192   -25.536209    1719.4792   -204.80114   -45.229546    -287.0184 
  496500    506.97409   -250.08765    954.18707       21.977       21.977       21.977            0            0            0    577.63955    1538.6022    746.31941    556.59728    196.28453   -31.319835 
  497000    567.11514   -250.85982    1102.7382       21.977       21.977       21.977            0            0            0    843.05281    1360.6899    1104.4719   -133.05922    259.07059   -681.33805 
  497500    590.08152   -250.26528    1120.4738       21.977       21.977       21.977            0            0            0    1588.5402    1010.0019    762.87928   -454.82975   -259.76162    13.381414 
  498000    526.98544   -249.33235    1487.9299       21.977       21.977       21.977            0            0            0    2208.4632    1270.5901    984.73656    109.15656   -927.19105    1068.1741 
  498500    571.79719   -249.47955    1653.3258       21.977       21.977       21.977            0            0            0    1871.7369    1126.3821    1961.8584   -74.661652    1093.4761    444.35766 
  499000    563.90584   -250.22513    1401.8725       21.977       21.977       21.977            0            0            0    714.50426    1708.8499    1782.2633    -301.6878    344.60747   -107.13111 
  499500    555.46878   -250.15817    1129.5126       21.977       21.977       21.977            0            0            0    850.09514    988.70042    1549.7424    92.088826   -231.49498   -271.64992 
  500000    559.94107   -249.60861    1560.7164       21.977       21.977       21.977            0            0            0    1549.0084    1853.7632    1279.3777    254.21739    -511.2887    1169.1539 
Loop time of 393.373 on 2 procs for 500000 steps with 250 atoms

Performance: 219.639 ns/day, 0.109 hours/ns, 1271.059 timesteps/s
94.6% CPU use with 2 MPI tasks x no OpenMP threads

MPI task timing breakdown:
Section |  min time  |  avg time  |  max time  |%varavg| %total
---------------------------------------------------------------
Pair    | 293.68     | 309.31     | 324.93     |  88.9 | 78.63
Neigh   | 6.1366     | 6.2559     | 6.3752     |   4.8 |  1.59
Comm    | 12.112     | 27.852     | 43.593     | 298.3 |  7.08
Output  | 42.198     | 42.201     | 42.205     |   0.1 | 10.73
Modify  | 6.5554     | 6.5799     | 6.6044     |   1.0 |  1.67
Other   |            | 1.176      |            |       |  0.30

Nlocal:    125 ave 125 max 125 min
Histogram: 2 0 0 0 0 0 0 0 0 0
Nghost:    1414 ave 1415 max 1413 min
Histogram: 1 0 0 0 0 0 0 0 0 1
Neighs:    8633.5 ave 9170 max 8097 min
Histogram: 1 0 0 0 0 0 0 0 0 1

Total # of neighbors = 17267
Ave neighs/atom = 69.068
Neighbor list builds = 16268
Dangerous builds = 0

Total wall time: 0:06:35
