LAMMPS (16 Jul 2018)

include		in.temp
variable	temperature equal 450.
variable	tempDamp equal 0.1 # approx 0.1 ps
include		in.pressure
variable	pressure equal 1.
variable	pressureDamp equal 1.0
include 	in.seed
variable	seed equal 74581
units		metal
include		in.box
read_data	data.equil
Reading data file ...
  orthogonal box = (0 0 0) to (21.977 21.977 21.977)
  1 by 1 by 2 MPI processor grid
  reading atoms ...
  250 atoms
  reading velocities ...
  250 velocities

variable 	mass equal 22.98977
mass            1 ${mass}
mass            1 22.98977
include 	in.setup
variable	out_freq equal 500
variable	out_freq2 equal 500

neigh_modify    delay 10 every 1
include		in.na
pair_style      eam/fs
pair_coeff      * * Na_MendelevM_2014.eam.fs Na

timestep	0.002 # According to Frenkel and Smit is 0.001

thermo          ${out_freq}
thermo          500
thermo_style 	custom step temp pe press lx ly lz xy xz yz pxx pyy pzz pxy pxz pyz


restart 	${out_freq} restart.lmp restart2.lmp
restart 	500 restart.lmp restart2.lmp



# NPT

fix             1 all nve
fix             2 all temp/csvr ${temperature} ${temperature} ${tempDamp} ${seed}
fix             2 all temp/csvr 450 ${temperature} ${tempDamp} ${seed}
fix             2 all temp/csvr 450 450 ${tempDamp} ${seed}
fix             2 all temp/csvr 450 450 0.1 ${seed}
fix             2 all temp/csvr 450 450 0.1 74581

velocity        all create ${temperature} ${seed} dist gaussian
velocity        all create 450 ${seed} dist gaussian
velocity        all create 450 74581 dist gaussian

run             5000
Neighbor list info ...
  update every 1 steps, delay 10 steps, check yes
  max neighbors/atom: 2000, page size: 100000
  master list distance cutoff = 11.2
  ghost atom cutoff = 11.2
  binsize = 5.6, bins = 4 4 4
  1 neighbor lists, perpetual/occasional/extra = 1 0 0
  (1) pair eam/fs, perpetual
      attributes: half, newton on
      pair build: half/bin/atomonly/newton
      stencil: half/bin/3d/newton
      bin: standard
Setting up Verlet run ...
  Unit style    : metal
  Current step  : 0
  Time step     : 0.002
Per MPI rank memory allocation (min/avg/max) = 3.01 | 3.01 | 3.01 Mbytes
Step Temp PotEng Press Lx Ly Lz Xy Xz Yz Pxx Pyy Pzz Pxy Pxz Pyz 
       0          450   -257.19306   -1298.9623       21.977       21.977       21.977            0            0            0   -1816.9446   -1267.3072   -812.63519    95.495487    484.15983    70.793857 
     500    420.22665   -253.71778   -241.22726       21.977       21.977       21.977            0            0            0    79.625505   -759.60992   -43.697359   -46.818847    40.937618   -163.55758 
    1000    446.46218   -253.30351   -195.97066       21.977       21.977       21.977            0            0            0    684.77437   -721.68915   -550.99721    558.15954   -83.757436   -165.94724 
    1500    456.61909   -253.87325   -243.72989       21.977       21.977       21.977            0            0            0   -293.00892    552.32804   -990.50879    131.17878   -600.90576   -84.861246 
    2000     448.2607   -253.58695   -222.73578       21.977       21.977       21.977            0            0            0   -559.84138    254.39768   -362.76364    2.5988087    763.72341    308.70116 
    2500    484.77882    -252.6619    69.174836       21.977       21.977       21.977            0            0            0     638.5933    588.86728   -1019.9361    292.96698   -452.74049   -86.939384 
    3000    435.36385   -253.67057   -199.69704       21.977       21.977       21.977            0            0            0   -515.69599   -267.44077    184.04563    62.043876    610.59344     146.6117 
    3500    433.44285   -253.34014   -127.33658       21.977       21.977       21.977            0            0            0   -955.05248    259.18546    313.85728   -106.06516     166.0019   -409.40145 
    4000    459.61563   -253.32226    -5.950743       21.977       21.977       21.977            0            0            0    -124.7046    512.07985   -405.22747   -366.24775   -1.5322823     689.1873 
    4500     425.9523   -253.07014   -76.621998       21.977       21.977       21.977            0            0            0   -784.65853    54.258205    500.53433    269.11562    506.63386   -426.71747 
    5000    420.99218   -252.43418    64.887415       21.977       21.977       21.977            0            0            0    540.23837    254.21244   -599.78856     62.53768   -702.59042    176.35661 
Loop time of 2.56169 on 2 procs for 5000 steps with 250 atoms

Performance: 337.278 ns/day, 0.071 hours/ns, 1951.838 timesteps/s
88.6% CPU use with 2 MPI tasks x no OpenMP threads

MPI task timing breakdown:
Section |  min time  |  avg time  |  max time  |%varavg| %total
---------------------------------------------------------------
Pair    | 1.7091     | 1.7694     | 1.8297     |   4.5 | 69.07
Neigh   | 0.035392   | 0.03641    | 0.037429   |   0.5 |  1.42
Comm    | 0.087168   | 0.14872    | 0.21026    |  16.0 |  5.81
Output  | 0.58429    | 0.58432    | 0.58436    |   0.0 | 22.81
Modify  | 0.015619   | 0.015943   | 0.016267   |   0.3 |  0.62
Other   |            | 0.006914   |            |       |  0.27

Nlocal:    125 ave 125 max 125 min
Histogram: 2 0 0 0 0 0 0 0 0 0
Nghost:    1401 ave 1403 max 1399 min
Histogram: 1 0 0 0 0 0 0 0 0 1
Neighs:    8658 ave 9050 max 8266 min
Histogram: 1 0 0 0 0 0 0 0 0 1

Total # of neighbors = 17316
Ave neighs/atom = 69.264
Neighbor list builds = 147
Dangerous builds = 0

unfix		1
unfix		2

reset_timestep	0

#include		in.dump

timer 		timeout 23:50:00 every 1000
New timer settings: style=normal  mode=nosync  timeout=23:50:00

fix             1 all plumed plumedfile plumed.dat outfile plumed.out
fix             2 all nve
fix             3 all temp/csvr ${temperature} ${temperature} ${tempDamp} ${seed}
fix             3 all temp/csvr 450 ${temperature} ${tempDamp} ${seed}
fix             3 all temp/csvr 450 450 ${tempDamp} ${seed}
fix             3 all temp/csvr 450 450 0.1 ${seed}
fix             3 all temp/csvr 450 450 0.1 74581

run             500000
Setting up Verlet run ...
  Unit style    : metal
  Current step  : 0
  Time step     : 0.002
  Walltime left : 23:49:59.97
Per MPI rank memory allocation (min/avg/max) = 3.01 | 3.01 | 3.01 Mbytes
Step Temp PotEng Press Lx Ly Lz Xy Xz Yz Pxx Pyy Pzz Pxy Pxz Pyz 
       0    420.99218   -252.43418    64.887415       21.977       21.977       21.977            0            0            0    540.23837    254.21244   -599.78856     62.53768   -702.59042    176.35661 
     500    435.19864   -253.13809    97.016061       21.977       21.977       21.977            0            0            0    351.70322    453.74211   -514.39715   -664.11007   -102.43826    163.85473 
    1000    430.95258   -252.32051    304.74064       21.977       21.977       21.977            0            0            0    319.31067     266.6355    328.27576   -447.76226   -445.56442     331.0127 
    1500    427.67241   -252.63798    152.82612       21.977       21.977       21.977            0            0            0    387.81652    9.5968015    61.065021    166.89724    58.229095   -360.11056 
    2000    444.24658   -254.69324    -492.4496       21.977       21.977       21.977            0            0            0   -196.30293   -883.84919    -397.1967    447.28246    100.87072   -467.61418 
    2500    498.24339   -252.38829    488.61716       21.977       21.977       21.977            0            0            0    415.88963    968.94419    81.017653   -108.34806    -722.5301   -566.09622 
    3000    447.43412   -253.32024   -354.33101       21.977       21.977       21.977            0            0            0   -692.99139    531.04116   -901.04279   -659.49281    203.12871    325.87158 
    3500    425.49019    -253.0378   -139.62354       21.977       21.977       21.977            0            0            0   -769.94968    -361.2615    712.34055   -156.23922     513.0587    157.27971 
    4000    473.90659   -253.79858   -279.51896       21.977       21.977       21.977            0            0            0   -299.98394    212.27157   -750.84451   -370.86646    758.14287   -372.90754 
    4500    408.02014   -252.71435    231.57179       21.977       21.977       21.977            0            0            0    169.86597    847.25474   -322.40534    255.69204   -454.50711   -411.27318 
    5000    421.83176   -252.62843    184.85053       21.977       21.977       21.977            0            0            0    678.99581   -45.697235   -78.746971   -363.18535   -163.89293     491.3584 
    5500    480.57466   -252.95924    172.33016       21.977       21.977       21.977            0            0            0   -138.35476     376.7752    278.57005    583.51317   -732.37632    363.01731 
    6000    428.20414   -252.99796   -20.516986       21.977       21.977       21.977            0            0            0    355.03943   -493.62675     77.03636    507.00936   -388.17876    58.847413 
    6500    477.30404    -252.3062    98.858156       21.977       21.977       21.977            0            0            0   -383.83027    366.06636    314.33838    594.22523    158.59277     247.8823 
    7000    423.06769   -254.16195   -436.86935       21.977       21.977       21.977            0            0            0   -120.74935   -297.01912   -892.83958    189.04244   -482.97479    264.21038 
    7500    465.34332   -253.53726   -129.52688       21.977       21.977       21.977            0            0            0    507.78664   -433.64415   -462.72314    214.18047    686.29189    110.99015 
    8000    446.47752   -252.32774    95.943756       21.977       21.977       21.977            0            0            0    13.091236   -361.46926    636.20929    58.363673   -254.77896    452.80435 
    8500    451.38763   -253.32115   -125.54215       21.977       21.977       21.977            0            0            0   -425.20394    538.14265   -489.56514   -776.82422    506.66355   -740.68129 
    9000    420.34937   -252.56994    195.37559       21.977       21.977       21.977            0            0            0    808.49348   -179.70484   -42.661862   -444.28218   -191.02321   -468.80737 
    9500    464.01053   -254.00637   -189.03122       21.977       21.977       21.977            0            0            0    18.999856    -182.6139   -403.47963   -530.24903   -266.99257    147.23842 
   10000    454.14616   -253.39266   -90.300042       21.977       21.977       21.977            0            0            0   -283.10544    526.09613   -513.89081   -729.97827     592.6709    127.22878 
   10500     418.5602   -253.88217   -427.77008       21.977       21.977       21.977            0            0            0   -730.49462    14.759282   -567.57491   -310.01042    328.42205    31.902705 
   11000    444.33105   -253.36867   -130.10766       21.977       21.977       21.977            0            0            0   -1152.0316    394.04374    367.66486    218.75703   -66.620457    619.97323 
   11500    459.03764   -253.22563   -21.875675       21.977       21.977       21.977            0            0            0   -203.16934    493.61147   -356.06916    729.20812   -242.32858   -98.900453 
   12000    468.21487   -254.09213   -213.22729       21.977       21.977       21.977            0            0            0   -758.61101   -67.672716    186.60187    -189.0083    214.89755    238.34323 
   12500    481.02757   -254.26051   -282.34955       21.977       21.977       21.977            0            0            0   -564.99061   -97.809389   -184.24865   -133.27778   -438.76537    139.82249 
   13000    479.20436   -253.39425    57.953699       21.977       21.977       21.977            0            0            0    156.73177    296.63808   -279.50876    110.54286   -226.82523    213.07385 
   13500    488.21763    -252.2723    247.37281       21.977       21.977       21.977            0            0            0    106.99852     880.2886   -245.16869   -875.42751    560.75067    69.528164 
   14000    449.03942   -253.23256   -62.685542       21.977       21.977       21.977            0            0            0   -299.86179   -23.235616    135.04078      454.441    76.307877    470.88702 
   14500    470.09189   -252.54478    318.98242       21.977       21.977       21.977            0            0            0     698.8218    213.27646    44.848993   -106.91634   -100.68902   -132.37992 
   15000     462.1936   -254.10102   -158.54282       21.977       21.977       21.977            0            0            0    121.85253   -215.94871   -381.53229   -496.97235     71.35684   -286.97188 
   15500    407.39291   -253.49565   -429.87923       21.977       21.977       21.977            0            0            0   -178.78471    -218.4777   -892.37527   -405.50937   -339.45227    30.549447 
   16000    423.63308   -252.72211    88.479461       21.977       21.977       21.977            0            0            0   -140.67966    220.73278    185.38526    351.96653   -342.29691    187.90419 
   16500    411.67171   -254.06119   -574.26891       21.977       21.977       21.977            0            0            0    120.47317   -731.60136   -1111.6785    269.06806   -275.32115    353.42269 
   17000    482.48054   -252.21567     362.8249       21.977       21.977       21.977            0            0            0     646.6156    407.86492    33.994178   -244.30718    783.50547   -200.40436 
   17500    443.45438   -252.18142    351.58395       21.977       21.977       21.977            0            0            0    268.17089    527.30975    259.27121    345.92916   -301.94066   -707.14136 
   18000    465.09014   -254.06875   -233.73388       21.977       21.977       21.977            0            0            0   -314.85703   -327.70227   -58.642332   -56.352724    425.72256    957.73142 
   18500    428.48543   -253.36154   -106.75363       21.977       21.977       21.977            0            0            0    431.03993   -445.21513   -306.08569    41.300021    29.404734     576.6448 
   19000    431.67609   -252.51994    237.43574       21.977       21.977       21.977            0            0            0    291.76004   -188.41809    608.96527    302.64875    375.87496   -969.50886 
   19500    438.52349   -252.29992    295.54586       21.977       21.977       21.977            0            0            0    311.49212    46.169746    528.97571   -551.84306    258.11184    275.74224 
   20000     484.3725   -253.14734    -189.2134       21.977       21.977       21.977            0            0            0     281.8681   -790.66417   -58.844118   -512.92382    193.84358   -210.83081 
   20500    497.30613   -253.87843   -174.45277       21.977       21.977       21.977            0            0            0   -280.89015    359.67764   -602.14578    12.650979    368.21794    138.76723 
   21000    457.39743   -252.54822    140.67008       21.977       21.977       21.977            0            0            0    139.92429    7.7344056    274.35154    30.816362   -13.633196   -707.08548 
   21500    472.53074   -252.25472    411.79243       21.977       21.977       21.977            0            0            0    261.96636    596.03686    377.37408    501.95539   -569.22256    32.380234 
   22000    440.33056   -252.24261    13.772613       21.977       21.977       21.977            0            0            0    243.44945    -688.1216    485.98999    659.09678   -280.58616   -403.78743 
   22500     466.1799   -252.89386     179.9572       21.977       21.977       21.977            0            0            0    207.07187    651.58673   -318.78699    250.65783  -0.49074386   -98.985599 
   23000    408.25087   -252.03879    247.61999       21.977       21.977       21.977            0            0            0    452.48961   -375.57594    665.94632    360.85983   -9.4232146    40.446806 
   23500     491.0733   -253.51741    -65.70467       21.977       21.977       21.977            0            0            0    394.80364   -773.73411    181.81646    291.48537   -365.00706   -403.96319 
   24000    440.68617   -253.23045    69.111086       21.977       21.977       21.977            0            0            0   -536.98263   -69.065008     813.3809    461.84321   -300.73646    11.352096 
   24500    478.10992   -253.02789    228.42344       21.977       21.977       21.977            0            0            0   -7.0636218    961.24967   -268.91573   -505.04284   -379.39219   -138.25779 
   25000    473.45315   -253.46272   -259.25105       21.977       21.977       21.977            0            0            0    187.17458   -139.54627   -825.38146    12.727683    565.16646    533.03158 
   25500     469.6827   -253.83868   -91.991434       21.977       21.977       21.977            0            0            0   -106.42363    -498.3899    328.83923   0.78661967    188.51634    643.52082 
   26000    433.03966   -253.55046   -252.98606       21.977       21.977       21.977            0            0            0   -245.95614   -173.66613    -339.3359   -612.70067    115.00221    201.86912 
   26500     422.4021   -253.56931   -164.85919       21.977       21.977       21.977            0            0            0    225.98061   -100.11902   -620.43916    26.101747   -23.290594    664.81662 
   27000    435.14865   -253.36806   -119.57371       21.977       21.977       21.977            0            0            0   -22.206055    473.13655   -809.65164    17.942658    316.31036    471.86216 
   27500    472.92023   -254.45938   -299.56848       21.977       21.977       21.977            0            0            0    -58.51222   -13.051323    -827.1419    455.67808   -267.06199    27.953051 
   28000    461.87671   -253.97409   -213.88808       21.977       21.977       21.977            0            0            0   -199.95826   -973.19336    531.48738   -1283.6375    573.56632   -64.088212 
   28500    441.04003   -252.19973     47.76974       21.977       21.977       21.977            0            0            0   -221.48603    -288.2272    653.02245     203.7645    132.31249   -574.95266 
   29000    459.57579   -252.66628    204.31912       21.977       21.977       21.977            0            0            0   -547.54358    688.02464    472.47631    108.34883   -117.23677   -230.11566 
   29500    496.17263    -254.0276   -25.421763       21.977       21.977       21.977            0            0            0     -149.752    178.61973   -105.13301   -595.84889   -70.889412   -171.26278 
   30000    397.77442    -253.4895   -331.39331       21.977       21.977       21.977            0            0            0   -158.50068    242.93565   -1078.6149   -32.845752   -254.37244   -463.41889 
   30500    432.26951   -253.63964   -184.88062       21.977       21.977       21.977            0            0            0   -9.8694555   -573.73881     28.96641    241.79254    163.11156    546.59086 
   31000    429.13386   -253.23038   -291.63053       21.977       21.977       21.977            0            0            0   -282.65627   -65.428424   -526.80691   -223.31203    181.05775   -51.844645 
   31500    445.10702   -254.41652   -468.96952       21.977       21.977       21.977            0            0            0   -934.01157    58.671622   -531.56861   -392.78342   -368.42981    5.4039835 
   32000    468.60952   -253.28553   -1.3769435       21.977       21.977       21.977            0            0            0   -456.00495     269.9345    181.93962    306.82548    67.318485     156.1715 
   32500    463.87437   -252.61474    135.18009       21.977       21.977       21.977            0            0            0     872.7117   -391.38319   -75.788236    -856.4878    271.15127    398.43212 
   33000    477.51874   -252.55305    204.02038       21.977       21.977       21.977            0            0            0    510.81785   -502.39024    603.63352   -68.584327    259.74068   -98.965419 
   33500    466.29809   -254.43302   -386.35353       21.977       21.977       21.977            0            0            0   -439.99678    42.659989    -761.7238    -90.01192   -433.83026     511.0155 
   34000    427.47966   -252.59759    52.638907       21.977       21.977       21.977            0            0            0   -26.902702    131.13646    53.682968   -548.29103    282.72691    82.713438 
   34500    445.08641   -253.11818     314.3278       21.977       21.977       21.977            0            0            0    56.236354    511.48324    375.26382    263.13327   -128.92806    136.58627 
   35000     404.9651    -252.0972    244.03165       21.977       21.977       21.977            0            0            0    397.66112    4.7025615    329.73126    627.81826   -81.980973    71.334433 
   35500    430.92198   -252.36567    75.822226       21.977       21.977       21.977            0            0            0   -48.717957   -157.09904    433.28368   -212.08903   -38.959924    102.90913 
   36000    454.07247   -254.12516   -323.39121       21.977       21.977       21.977            0            0            0   -460.51192   -791.41838    281.75668    321.20543    -453.3134    103.40104 
   36500    473.48859   -253.56628    44.831974       21.977       21.977       21.977            0            0            0   -426.79284    39.334932    521.95383    171.46248    142.30538    144.00182 
   37000    465.10484   -253.70872   -144.53336       21.977       21.977       21.977            0            0            0    343.88953   -456.49807   -320.99155    158.86662    427.32432    991.50312 
   37500    441.45461    -252.0592    497.21944       21.977       21.977       21.977            0            0            0    351.82338    589.08944    550.74549    196.64121    864.89791    295.98862 
   38000    478.09513    -253.1434   -37.138964       21.977       21.977       21.977            0            0            0    515.53342   -1089.3484    462.39807    195.28441    182.99851   -92.662957 
   38500    482.28521   -251.86103    414.77213       21.977       21.977       21.977            0            0            0    591.59135     133.1666    519.55844   -748.82282   -55.132638   -121.93699 
   39000    439.04378   -253.12682    20.604386       21.977       21.977       21.977            0            0            0   -702.88835    1182.9964   -418.29485    668.79826    -502.6613    -528.4693 
   39500    479.18511   -252.44323       286.77       21.977       21.977       21.977            0            0            0    4.2045277    1124.7308   -268.62537    1116.7802    417.72711     224.0527 
   40000    462.97217   -253.76033   -2.2867443       21.977       21.977       21.977            0            0            0   -532.80283   -3.5673109    529.50991     7.315324   -123.78149    28.163642 
   40500    485.19149   -253.77709   -128.45861       21.977       21.977       21.977            0            0            0    -292.9297   -624.80693     532.3608    8.5835907    534.66934   -194.99068 
   41000    449.27792   -253.58022   -164.78159       21.977       21.977       21.977            0            0            0   -690.29873    533.50838   -337.55444   -298.99395    530.98775    -59.72324 
   41500    430.07182   -254.17488   -490.72431       21.977       21.977       21.977            0            0            0   -1118.9996   -520.96968    167.79632   -129.51903   -150.92665   -170.62011 
   42000    464.73277   -254.00629   -171.80731       21.977       21.977       21.977            0            0            0   -142.56073   -134.65849    -238.2027    13.122068   -434.39289   -736.88149 
   42500     443.5468   -252.68933    64.380791       21.977       21.977       21.977            0            0            0   -199.56966   -394.76052    787.47255    141.15769    920.94259   -423.18033 
   43000    450.55039   -253.00251    389.46394       21.977       21.977       21.977            0            0            0    582.27995    667.28686   -81.174981   -172.69152    38.411232   -444.64634 
   43500    464.12615   -252.32439    450.94211       21.977       21.977       21.977            0            0            0    51.472978    846.75844     454.5949    420.07688   -70.065034   -218.45785 
   44000    476.95478   -252.51428    298.18677       21.977       21.977       21.977            0            0            0    737.72615   -4.3080067    161.14217   -910.08958   -255.20611    202.36834 
   44500    448.15938   -254.45887   -352.95263       21.977       21.977       21.977            0            0            0   -127.67279    -720.5365   -210.64858   -513.77237    67.247002   -148.88358 
   45000    422.96098   -252.91556    34.979581       21.977       21.977       21.977            0            0            0    217.13305   -910.23065    798.03635     443.8507   -146.62817    157.49183 
   45500    460.71198   -253.78612   -115.07472       21.977       21.977       21.977            0            0            0    4.5771327   -49.237207   -300.56407    393.52509    263.93418    114.54569 
   46000    496.54849   -252.41221    415.41801       21.977       21.977       21.977            0            0            0   -428.74584    1281.0286    393.97128   -139.03887    654.68233    251.33974 
   46500    455.28057   -251.62844    434.40146       21.977       21.977       21.977            0            0            0    887.60079    129.00604    286.59756   -550.62299    230.00042   -600.42171 
   47000    437.21475   -252.12993    86.777371       21.977       21.977       21.977            0            0            0   -625.96184    588.00998    298.28398    229.62749   -912.14031    -833.6935 
   47500    440.98978   -252.23546    315.58335       21.977       21.977       21.977            0            0            0    385.72294    364.70464    196.32248   -212.40355   -417.39371   -244.96924 
   48000    406.26872   -252.41996    87.410025       21.977       21.977       21.977            0            0            0    46.372292    362.21974   -146.36196    638.93178    197.69574   -421.92699 
   48500    450.02999   -253.37211    100.46909       21.977       21.977       21.977            0            0            0    -89.30405    230.81245    159.89888   -305.88533   -540.39734    20.914033 
   49000    489.29104   -252.98664    114.78608       21.977       21.977       21.977            0            0            0   -74.799203    646.81745   -227.65999    568.10739   -106.70187    78.115236 
   49500    440.30718   -254.44816   -647.33241       21.977       21.977       21.977            0            0            0   -1383.3551    46.035638   -604.67781    266.25831    1086.7233    532.94782 
   50000    433.94068   -252.32281    317.10887       21.977       21.977       21.977            0            0            0   -46.452491    642.11736    355.66173   -288.95251   -481.27635   -190.52232 
   50500    454.02592   -253.34135   -124.53279       21.977       21.977       21.977            0            0            0   -202.69113    46.824586   -217.73183    638.18703   -475.37032   -29.977323 
   51000    483.06973   -253.15192    52.667669       21.977       21.977       21.977            0            0            0   -307.23498    422.47202    42.765966   -171.72448    -135.8288    259.92699 
   51500    422.74829   -254.03488   -299.04627       21.977       21.977       21.977            0            0            0   -729.82696   -36.136837   -131.17501    310.37701    109.12373    33.174903 
   52000    491.58142    -252.9571    154.72122       21.977       21.977       21.977            0            0            0    400.43527    432.31046   -368.58206     530.9923    -355.5975    951.98475 
   52500    442.75507    -253.8501   -243.74079       21.977       21.977       21.977            0            0            0   -413.78109    95.132635   -412.57392    241.70832    153.39936     296.7467 
   53000    448.12793   -252.82825    322.67514       21.977       21.977       21.977            0            0            0   -232.18018    1174.1859    26.019714   -66.748846    749.26313   -813.58414 
   53500    429.34749   -253.52144   -216.87635       21.977       21.977       21.977            0            0            0   -128.52045   -331.07782   -191.03076   -746.99513   -276.92218    342.66188 
   54000    417.67965   -253.40885   -348.02141       21.977       21.977       21.977            0            0            0   -580.98112   -382.62828   -80.454827   -555.73411    170.34064     855.1918 
   54500     436.4708   -252.72127    19.762677       21.977       21.977       21.977            0            0            0   -63.769941    361.82664   -238.76867    5.6790188    1003.1243    276.33692 
   55000    469.11541   -252.93275    83.657754       21.977       21.977       21.977            0            0            0   0.84090755   -320.97132    571.10368    -1008.029   -115.68702   -284.91907 
   55500    480.43173   -251.53674    534.84878       21.977       21.977       21.977            0            0            0     837.7053   -42.330088    809.17114    186.67481     257.5757    38.447846 
   56000    477.72636    -254.2322   -104.45311       21.977       21.977       21.977            0            0            0    -793.9353   -288.81042     769.3864    395.62226     221.6542    241.76698 
   56500    459.40409   -252.98416    85.364707       21.977       21.977       21.977            0            0            0    376.84855   -47.845767   -72.908663    104.20771    102.50287    -1628.046 
   57000    442.85078   -253.64115   -91.370044       21.977       21.977       21.977            0            0            0   -495.62732   -134.35856    355.87574    420.95256    827.21313     -448.696 
   57500    456.12189   -253.97208   -220.05369       21.977       21.977       21.977            0            0            0    184.72487   -845.66209   0.77614956   -258.56118   -66.713937  -0.94019591 
   58000    478.55058    -253.3962    127.86568       21.977       21.977       21.977            0            0            0   -12.813974    739.54509   -343.13409   -855.68673    -107.0082    77.141739 
   58500    465.57575   -252.18097    401.57127       21.977       21.977       21.977            0            0            0    415.19278   -5.8597798    795.38081    -772.0366    496.85344    752.42965 
   59000    446.61644   -253.37817   -189.77701       21.977       21.977       21.977            0            0            0   -156.17516   -134.12485   -279.03102    210.62607   -16.052552    177.09949 
   59500    444.19793   -252.90924     43.38987       21.977       21.977       21.977            0            0            0    299.06121   -649.36608    480.47448   -85.488211    352.25421   -106.89218 
   60000    459.42362   -254.05673   -114.26187       21.977       21.977       21.977            0            0            0    183.13772   -578.94386    53.020546   -31.710096    447.41186   -409.28594 
   60500    438.88118   -252.25293    368.26976       21.977       21.977       21.977            0            0            0    394.62074    857.74464   -147.55609   -533.43447    639.82942     242.2661 
   61000    451.66089   -252.60728    211.77202       21.977       21.977       21.977            0            0            0    405.11358   -325.86578    556.06826    27.301412    317.86664   -349.57947 
   61500    403.84624   -254.31848   -497.04871       21.977       21.977       21.977            0            0            0   -165.88091   -110.53653   -1214.7287    416.96118    16.490613   -532.22441 
   62000     478.5406   -252.54172    35.447786       21.977       21.977       21.977            0            0            0   -802.20625    689.88623    218.66337     103.9814   -338.45484    -455.0282 
   62500    472.87219   -252.15468     401.6076       21.977       21.977       21.977            0            0            0    467.66702    216.51785    520.63793   -584.21884    -442.5466    536.00686 
   63000    443.21638   -252.55515    52.373886       21.977       21.977       21.977            0            0            0    365.23735    581.43318   -789.54887    387.98748    375.89707   -61.687529 
   63500    447.71962   -252.59492    41.309089       21.977       21.977       21.977            0            0            0   -742.44164    383.50751     482.8614    529.73183   -373.46915   -215.49954 
   64000     425.0209   -252.34912     47.36702       21.977       21.977       21.977            0            0            0   -463.86186   -119.90976    725.87268    -492.4807    167.62421   -389.69595 
   64500    459.64014   -253.75061   -373.39071       21.977       21.977       21.977            0            0            0    216.95829   -432.73464   -904.39578    -84.39895    337.71965    707.64483 
   65000    480.09592   -253.61016    15.846069       21.977       21.977       21.977            0            0            0    -510.7014    317.89627    240.34333    868.71873    157.74819    -44.22832 
   65500    461.23345   -252.61862    190.99853       21.977       21.977       21.977            0            0            0    187.60887    363.74636    21.640352    -319.5621   -242.48578    645.57591 
   66000    435.50599   -252.83834   -33.156657       21.977       21.977       21.977            0            0            0   -482.00789    645.13158   -262.59366    407.69677   -232.38604   -334.39064 
   66500    450.66168    -254.2982   -446.46385       21.977       21.977       21.977            0            0            0   -14.049166   -463.69051   -861.65187   -254.57385    542.38402   -191.58683 
   67000    450.03693   -254.22151   -531.97687       21.977       21.977       21.977            0            0            0   -692.88494   -782.35173   -120.69395   -32.039487     -387.417   -25.886832 
   67500    434.12059   -252.22411    188.36064       21.977       21.977       21.977            0            0            0    79.048509    218.15699    267.87641   -183.00339   -710.56513     183.0868 
   68000    489.78127   -253.13963    46.270723       21.977       21.977       21.977            0            0            0    365.98236   -158.87813   -68.292061    -433.6891     550.6932    654.45833 
   68500    450.83432    -253.2351   -65.333498       21.977       21.977       21.977            0            0            0   -757.50724    243.61363    317.89312    690.68811   -786.96439    -729.8903 
   69000    477.22699   -252.91893     141.1164       21.977       21.977       21.977            0            0            0    503.44607   -23.931424   -56.165443    379.15478   -333.40375   -225.43577 
   69500    445.87148   -252.97241   -15.420283       21.977       21.977       21.977            0            0            0   -426.17662   -385.62525    765.54102   -249.95291    343.13709    -76.97126 
   70000     479.6698   -253.22103   -89.612258       21.977       21.977       21.977            0            0            0    513.44298   -178.84793   -603.43182   -154.84721   -348.53337    714.79872 
   70500    419.84641   -251.73597    124.98465       21.977       21.977       21.977            0            0            0    -37.69212    409.52182    3.1242374      290.017    343.71215    57.558687 
   71000     435.4805   -253.31149   -181.23901       21.977       21.977       21.977            0            0            0    387.30792   -663.13264   -267.89232   -600.66425     416.6836   -666.97911 
   71500    440.43995   -252.76895    114.79162       21.977       21.977       21.977            0            0            0    154.48456   -149.66902    339.55931    398.81934    166.02663    254.85865 
   72000    435.68736   -253.41781    -296.5725       21.977       21.977       21.977            0            0            0   -402.54464   -881.37244    394.19958    29.587926     364.8181   -471.78142 
   72500    472.29792   -254.22403   -449.63727       21.977       21.977       21.977            0            0            0    326.86332    -414.2371    -1261.538   -599.10482    237.71223   -127.42365 
   73000    478.85543   -253.55841   -235.71856       21.977       21.977       21.977            0            0            0    486.15536   -746.51179   -446.79925    801.61188   -142.77097    549.75435 
   73500    442.50478   -251.51532    589.85112       21.977       21.977       21.977            0            0            0    1922.7935    11.028909   -164.26907    1052.7986   -443.49045    201.38244 
   74000    474.34278   -253.57378   -68.906869       21.977       21.977       21.977            0            0            0    -642.3709    837.71583   -402.06553   -163.03635   -38.153838    369.92835 
   74500    413.90742    -252.2562   -41.089483       21.977       21.977       21.977            0            0            0    -98.72645    306.08755   -330.62955   -308.12428    624.29171   -791.23074 
   75000    467.59365   -252.16695    213.84611       21.977       21.977       21.977            0            0            0     575.0291    202.63147   -136.12225    40.315426    566.25362    221.40721 
   75500    413.45097   -253.67063   -354.13003       21.977       21.977       21.977            0            0            0   -404.44555   -803.26979    145.32525   -3.4475775   -202.04768   -82.260574 
   76000    434.81957   -253.34502   -195.48686       21.977       21.977       21.977            0            0            0   -424.90388    495.39468   -656.95137    90.732544   -611.67531    99.613381 
   76500    473.91308   -254.68526   -547.71706       21.977       21.977       21.977            0            0            0   -119.61948   -607.62505   -915.90665    67.653826   -10.788317   -261.70183 
   77000    455.77965   -253.91274   -255.12993       21.977       21.977       21.977            0            0            0   -206.88026    148.43891   -706.94844    293.14245   -328.78147   -548.06081 
   77500    412.71169   -254.46181   -444.97626       21.977       21.977       21.977            0            0            0   -79.150761      -920.42   -335.35802   -533.21508    612.60768    156.08575 
   78000    512.80328   -252.88168    41.789615       21.977       21.977       21.977            0            0            0   -955.21632    339.08978    741.49538   -96.974666   -326.75227   -15.493149 
   78500    442.09433   -253.15328    79.005472       21.977       21.977       21.977            0            0            0    268.56864    321.93878   -353.49101    477.16231    396.86861    129.90364 
   79000    465.18888   -252.50745    146.98364       21.977       21.977       21.977            0            0            0    629.57528     -985.834    797.20963   -373.46423   -6.3517856   -41.442751 
   79500    460.20379   -252.50577    156.41518       21.977       21.977       21.977            0            0            0    289.78924    322.55848   -143.10218   -460.83685   -25.130629   -609.43231 
   80000    433.21362   -252.55382    133.82031       21.977       21.977       21.977            0            0            0     416.6484    41.960478   -57.147954    185.98618   -130.11558   -175.47005 
   80500    456.00145    -252.0686    265.44753       21.977       21.977       21.977            0            0            0    42.217664    835.79296   -81.668022   -711.25206   -225.57161   -687.41456 
   81000     472.1178   -253.41608   -64.318962       21.977       21.977       21.977            0            0            0    236.24508   -230.70736   -198.49461   -166.39069    91.199072    98.080917 
   81500    461.11434   -253.55097     72.02176       21.977       21.977       21.977            0            0            0    434.31614   -547.38893    329.13807   -91.239543    1.4787715   -101.37712 
   82000    459.60595   -252.52715   -43.561578       21.977       21.977       21.977            0            0            0    202.55945   -214.27188    -118.9723   -568.28064    6.8774784    176.07138 
   82500    422.33323   -253.24675   -145.12322       21.977       21.977       21.977            0            0            0   -377.04143   -345.17767    286.84943   -165.74852    218.36319   -76.795966 
   83000    477.06018   -253.20358    -8.853625       21.977       21.977       21.977            0            0            0   -944.37958    986.85053   -69.031823   -342.72023    599.54464   -262.99883 
   83500    420.69736   -252.29231    253.01076       21.977       21.977       21.977            0            0            0   -111.06657     143.2814    726.81744    142.56382    482.02513    653.27497 
   84000    419.32536   -254.19792   -603.22329       21.977       21.977       21.977            0            0            0    -440.0136   -865.73153   -503.92473   -260.37458    187.90441    81.363793 
   84500    455.14215   -253.11259    22.587972       21.977       21.977       21.977            0            0            0   -317.71168    336.59855    48.877039   -523.02433   -358.95505    353.53568 
   85000    468.03726   -252.77759     144.4247       21.977       21.977       21.977            0            0            0    1209.3964   -266.30431   -509.81804   -762.25143   -18.583569   -94.241019 
   85500     479.5801     -251.451    498.47673       21.977       21.977       21.977            0            0            0    478.82817    740.91212    275.68991    326.94573   -67.863252    85.294274 
   86000    389.74625   -252.05184    77.169097       21.977       21.977       21.977            0            0            0     94.05007    26.868448    110.58877    645.27854   -106.33983    7.8401768 
   86500    444.26089    -254.1319   -354.48455       21.977       21.977       21.977            0            0            0   -308.54762   -6.9416937   -747.96434   -363.19623    37.410669   -614.48194 
   87000    515.33344   -251.87428    676.71022       21.977       21.977       21.977            0            0            0    1186.1394    629.45833    214.53293    112.24338    416.94963   -252.83362 
   87500    468.92641   -253.10923    107.88761       21.977       21.977       21.977            0            0            0    188.01507    123.97779    11.669967     834.5216    851.97845   -216.26506 
   88000    452.13787   -250.58656    649.00917       21.977       21.977       21.977            0            0            0    520.06984    -13.32783    1440.2855   -898.97173   -406.69123   -90.943001 
   88500     401.8723   -252.89196   -38.136578       21.977       21.977       21.977            0            0            0   -254.63917   -125.85042    266.07987    211.78778    -173.8482    66.059675 
   89000    457.50339   -252.55009    171.97522       21.977       21.977       21.977            0            0            0    1111.8836    -250.6121   -345.34587   -309.00486   -328.11876    20.562485 
   89500    441.79663   -253.27837   -82.566602       21.977       21.977       21.977            0            0            0   -374.29002    362.13497   -235.54475   -159.63452   -61.795757   -283.14705 
   90000    491.62604   -253.25343    76.118802       21.977       21.977       21.977            0            0            0    217.55184    330.60294   -319.79838      322.897    375.11868    172.34293 
   90500    489.04446   -252.69617    115.62067       21.977       21.977       21.977            0            0            0    639.16779   -322.98436    30.678576    74.652478   -182.18859    250.85171 
   91000    436.27094   -253.11336    71.180348       21.977       21.977       21.977            0            0            0    83.162171    478.25298   -347.87411    195.46528   -414.96132   -169.41285 
   91500    422.54369   -253.79472   -195.72739       21.977       21.977       21.977            0            0            0   -300.27794    52.913906   -339.81813    353.05153     138.0011    209.81486 
   92000     449.7451   -253.13329     15.57493       21.977       21.977       21.977            0            0            0   -170.80143    487.83604   -270.30981    -420.4155    -194.0397    -33.75593 
   92500    482.41204   -252.38072    427.50999       21.977       21.977       21.977            0            0            0    572.28521    443.76575    266.47901   -14.798644   -89.883324      224.226 
   93000    450.57689   -252.53297     69.05469       21.977       21.977       21.977            0            0            0    107.29457   -8.3168738    108.18638    441.74454    565.77953    -275.2724 
   93500    423.40103   -252.56861    152.52777       21.977       21.977       21.977            0            0            0    194.94949    121.55368    141.08013    198.87366   -141.61055    435.84089 
   94000    456.76021   -253.06938    42.449972       21.977       21.977       21.977            0            0            0    42.512071    23.734764    61.103082   -261.91648    602.20941    74.137673 
   94500    424.26146   -253.20278     114.4919       21.977       21.977       21.977            0            0            0    119.94363   -281.30572    504.83777   -431.98197    371.99671    553.68881 
   95000    454.48742   -253.49572    38.265817       21.977       21.977       21.977            0            0            0   -16.943683    47.543701    84.197433     313.4524    509.51317   -224.86306 
   95500    491.79383   -254.15838   -188.05662       21.977       21.977       21.977            0            0            0    1059.3085   -693.70641   -929.77194    66.496108   -365.95845    772.47485 
   96000    492.82627   -252.58769    268.99422       21.977       21.977       21.977            0            0            0   -353.77211    692.86671    467.88804    108.25671    538.98599   -321.83811 
   96500    466.49766   -253.56169   -126.18798       21.977       21.977       21.977            0            0            0    633.87893   -924.55168   -87.891187    462.85587   -43.462878   -433.12165 
   97000    440.90164   -252.15108    304.56728       21.977       21.977       21.977            0            0            0    1230.2408    269.29899   -585.83795   -46.232706    361.54172   -68.986341 
   97500    429.60759   -253.91911   -328.31388       21.977       21.977       21.977            0            0            0   -488.95381   -106.50214   -389.48569   -243.90436   -600.87923    224.46833 
   98000    456.64239   -253.32277    137.88228       21.977       21.977       21.977            0            0            0    987.11162   -336.65327   -236.81152   -32.278062    208.03276   -91.199691 
   98500    459.04336   -253.64006   -13.282518       21.977       21.977       21.977            0            0            0    178.10487    8.4081584   -226.36058   -13.911393   -349.83595    23.582999 
   99000    432.47909   -252.21908    102.71261       21.977       21.977       21.977            0            0            0   -294.61253   -69.367513    672.11786   -68.468454    399.71117   -576.97058 
   99500    474.80738   -252.56389    329.46614       21.977       21.977       21.977            0            0            0    212.83847     1577.035   -801.47505   -176.35204    698.55818    110.41853 
  100000    447.60417   -251.61871    650.85368       21.977       21.977       21.977            0            0            0    431.56643    1610.2466   -89.251994    141.25968    128.90844    68.071654 
  100500    461.46003   -253.28986   -122.99165       21.977       21.977       21.977            0            0            0   -64.014928    12.874532   -317.83457   -71.103493    155.81099    522.54226 
  101000     453.9293   -254.49229   -501.65737       21.977       21.977       21.977            0            0            0   -886.07708   -81.760537   -537.13451      910.074    153.77706   -343.23391 
  101500    453.62321    -252.3196    373.44276       21.977       21.977       21.977            0            0            0    819.85008    99.331958    201.14624     436.9805   -119.38405    59.079828 
  102000     457.4063   -254.26922   -300.75176       21.977       21.977       21.977            0            0            0   -404.00585   -1093.3339    595.08443    257.26192    108.50575    392.84621 
  102500    480.54528   -254.03127   -326.55919       21.977       21.977       21.977            0            0            0   -947.10789   -231.01311    198.44341   -212.75316    938.74206    698.82462 
  103000    470.28368   -253.01009    186.09187       21.977       21.977       21.977            0            0            0   -780.24234     972.8385    365.67946   -10.643473   -235.68995    136.36458 
  103500    442.53384   -252.26277    313.72187       21.977       21.977       21.977            0            0            0      1037.29    185.00366     -281.128    155.23372    441.23502   -637.94522 
  104000    418.00793     -251.727    125.67062       21.977       21.977       21.977            0            0            0    91.574899    197.07723    88.359715    121.12236    104.04293    473.25923 
  104500    448.77413   -253.07355    28.216314       21.977       21.977       21.977            0            0            0     36.58433   -167.76584    215.83045   -240.73366    9.2999538    147.77772 
  105000    421.75657   -252.70913    111.17784       21.977       21.977       21.977            0            0            0   -346.50457    645.93311    34.104966   -445.66742    170.82524   -190.22601 
  105500    407.96361   -252.16767    45.473006       21.977       21.977       21.977            0            0            0   -108.18803   -79.257033    323.86409   -670.20627    233.91075   -329.99507 
  106000     445.8811   -252.55407    104.00277       21.977       21.977       21.977            0            0            0    49.837167    415.99524   -153.82409     -315.422    16.998574   -585.93509 
  106500     426.9667   -252.42941    76.355748       21.977       21.977       21.977            0            0            0    39.534427    348.55724   -159.02442    34.610435   -150.37163   -171.64828 
  107000    430.05908   -253.88531   -375.14302       21.977       21.977       21.977            0            0            0   -92.215543   -152.12284   -881.09069   -591.30634     36.85976   -701.70899 
  107500    440.12597   -253.06421   -177.83425       21.977       21.977       21.977            0            0            0   -588.19109   -716.90805    771.59639    252.63172   -456.67877    466.95888 
  108000    511.61002   -252.59191    292.41842       21.977       21.977       21.977            0            0            0    603.98984   -660.17033    933.43574   -202.10598   -328.75265   -95.702899 
  108500    433.55921   -253.80428   -142.77649       21.977       21.977       21.977            0            0            0    203.24042   -1052.6012    421.03132    310.01895   -461.34418    113.66974 
  109000    459.89952   -253.20872   -46.730937       21.977       21.977       21.977            0            0            0    335.19459   -525.53549    50.148087    88.696681    172.55566    208.90382 
  109500    463.73523   -254.15177   -402.93687       21.977       21.977       21.977            0            0            0   -161.14509   -120.25113   -927.41439   -92.268042    847.91211      372.943 
  110000    455.15138   -253.78223   -274.50805       21.977       21.977       21.977            0            0            0    487.17251   -1193.3603    -117.3364   -76.482178   -41.476258    624.91125 
  110500    437.67834   -253.19114   -114.32875       21.977       21.977       21.977            0            0            0    345.93031   -478.17661   -210.73996    56.072906   -227.05408    237.93687 
  111000    434.27425    -253.1155    56.578204       21.977       21.977       21.977            0            0            0     670.0725   -704.96784    204.62995   -529.49781    302.54439    212.86392 
  111500    471.37962   -254.35561   -347.17716       21.977       21.977       21.977            0            0            0    195.14138   -157.67364   -1078.9992    628.37612   -73.586314   -625.90328 
  112000     431.0581   -252.95493   -1.0581617       21.977       21.977       21.977            0            0            0   -86.939345   -113.78778    197.55264    80.942503    621.58614   -292.72803 
  112500    443.19335   -254.34225   -404.19026       21.977       21.977       21.977            0            0            0   -1117.2443   -44.872739   -50.453731     788.2421    167.54249     462.1313 
  113000    454.98412   -254.87519   -356.66034       21.977       21.977       21.977            0            0            0   -143.74415   -922.63683   -3.6000516    106.94112   -186.06245   -241.45848 
  113500    456.98935   -253.20849    52.088672       21.977       21.977       21.977            0            0            0    276.97171   -431.51265    310.80696   -268.79847    549.66707   -413.40527 
  114000    423.97874     -252.765    43.403234       21.977       21.977       21.977            0            0            0   -137.54389   -476.51126    744.26485   -305.96487    239.77913   -260.68691 
  114500    464.55743   -253.84169   -237.68066       21.977       21.977       21.977            0            0            0   -462.93934    -630.3651    380.26248    264.32238   -292.14273   -246.93464 
  115000    429.75424   -251.27324     246.5965       21.977       21.977       21.977            0            0            0   -37.621968    1333.0827   -555.67124   -47.027156   -195.38055   -500.27279 
  115500    446.84652   -252.87853   -5.6759554       21.977       21.977       21.977            0            0            0   -211.32249   -727.94507     922.2397    1.8925448   -471.36115   -108.51212 
  116000    455.06365   -252.92007    175.29638       21.977       21.977       21.977            0            0            0    471.52076   -57.042027    111.41039    221.12278   -386.21423   -589.97264 
  116500    453.35081   -252.07484    347.69267       21.977       21.977       21.977            0            0            0    620.84425   -104.74458    526.97835   -427.78437   -1176.2998    798.11711 
  117000    445.55777   -253.24075    117.75535       21.977       21.977       21.977            0            0            0     94.96434   -450.33908    708.64079    143.53925   -450.22757   -403.93614 
  117500    456.18659    -254.3718   -274.32292       21.977       21.977       21.977            0            0            0    70.685818    218.72434   -1112.3789     269.3658   -759.09786    182.66747 
  118000    476.92925    -252.7734   -54.570978       21.977       21.977       21.977            0            0            0   -307.84573   -739.13109    883.26389   -42.418652    -471.2079     530.2013 
  118500    478.14409   -253.30391    141.81054       21.977       21.977       21.977            0            0            0   -808.77927    668.19047    566.02043   -354.01227   -540.82053    115.21091 
  119000    436.95123   -252.27292    105.57726       21.977       21.977       21.977            0            0            0     674.4096   -757.67197    399.99416    870.28916    293.94276    187.81187 
  119500    495.11144   -252.15879    453.58829       21.977       21.977       21.977            0            0            0    -125.1306    680.63259    805.26288    -273.7016    139.25863    233.52682 
  120000    446.19841   -252.74797    155.51838       21.977       21.977       21.977            0            0            0    687.94357   -199.91232   -21.476105   -67.153859   -313.68997    445.03791 
  120500    447.45126   -252.92024    51.743144       21.977       21.977       21.977            0            0            0    64.255955   -238.13077    329.10425    379.13974    51.733109   -196.55468 
  121000      444.401   -252.96961     86.70009       21.977       21.977       21.977            0            0            0    61.970437    383.53012   -185.40028   -249.05777    172.46876   -519.80204 
  121500    454.23184   -252.82039   -1.6676859       21.977       21.977       21.977            0            0            0     165.7863    26.236645   -197.02601    219.97672   -185.11073   -349.36487 
  122000    531.82393   -252.90606    246.68431       21.977       21.977       21.977            0            0            0    1044.6405    130.95323   -435.54076    596.71567    523.84383    297.45779 
  122500    471.41015   -253.59232    96.926017       21.977       21.977       21.977            0            0            0    53.801499   -57.195109    294.17166   -324.03029   -312.29204   -207.28627 
  123000    423.28803   -252.53675     66.11177       21.977       21.977       21.977            0            0            0    1045.4948    185.96781   -1033.1273   -94.768736     423.9836    47.842657 
  123500    463.60332   -251.57475    476.13283       21.977       21.977       21.977            0            0            0    50.078081     100.7337    1277.5867    834.42683   -229.77045   -75.064711 
  124000    469.68573     -252.029    272.62735       21.977       21.977       21.977            0            0            0   -570.24906   -66.990048    1455.1212    29.625902    93.092793    17.590169 
  124500     394.6779   -252.54363   -202.50119       21.977       21.977       21.977            0            0            0   -562.17226    372.69742   -418.02873    747.11091   -186.76872    55.824286 
  125000    437.56686   -253.63467   -232.20852       21.977       21.977       21.977            0            0            0   -175.81378    366.66158   -887.47337    243.10135    258.75511   -256.65039 
  125500    485.63859   -252.25997    444.15392       21.977       21.977       21.977            0            0            0    444.23045    602.14296    286.08835    30.509837   -127.34124   -342.16363 
  126000    449.85792   -252.52367    142.49762       21.977       21.977       21.977            0            0            0    314.99948    245.05153   -132.55815   -478.68893   -414.15172   -442.63942 
  126500    437.31291   -253.56197   -183.53847       21.977       21.977       21.977            0            0            0    381.12641   -811.69316   -120.04866    590.20667   -810.72816    138.93009 
  127000     411.9194   -252.14896     252.3608       21.977       21.977       21.977            0            0            0   -436.03514    694.79387    498.32366    181.22192   -24.975177     212.4524 
  127500    440.27446    -252.3824    93.435198       21.977       21.977       21.977            0            0            0   -292.39401    910.76419   -338.06459   -595.59828   -432.29205    133.47056 
  128000    422.77356    -252.5879    -90.11415       21.977       21.977       21.977            0            0            0    242.47172   -853.12564    340.31148    47.937599    -709.3839   -309.06504 
  128500    505.43881   -252.72984    373.81633       21.977       21.977       21.977            0            0            0    799.69922   -468.72774    790.47751   -437.41826   -198.06959    185.31486 
  129000    468.92623   -253.79477   -263.81034       21.977       21.977       21.977            0            0            0   -109.50993   -904.01327    222.09217   -50.988789   -264.18442    549.12416 
  129500    430.01817   -253.06247   -31.388016       21.977       21.977       21.977            0            0            0    -163.1824    99.733075   -30.714719    107.34626   -256.39781   -234.90088 
  130000     428.4536   -253.97464   -230.66365       21.977       21.977       21.977            0            0            0    291.76502   -539.44059   -444.31539    559.40418     264.1724   -154.18568 
  130500    463.79452   -252.38926    336.65535       21.977       21.977       21.977            0            0            0    294.31281    753.06979   -37.416538   -197.56628    186.08006   -76.003914 
  131000    469.91161    -254.2119   -192.94829       21.977       21.977       21.977            0            0            0   -628.87974    622.39913   -572.36426    455.26939   -119.19618   -391.28259 
  131500     434.4103   -254.18087    -337.3462       21.977       21.977       21.977            0            0            0   -185.50467   -210.93817   -615.59576   -431.86997   -307.86397    263.16606 
  132000     393.5219   -253.11004   -420.93847       21.977       21.977       21.977            0            0            0     -45.0467   -321.39065   -896.37805   -376.47387   -384.32841   -38.601751 
  132500    514.49361   -251.38931    542.16031       21.977       21.977       21.977            0            0            0    539.12586   -16.939597    1104.2947   -662.35162    313.11712    509.64134 
  133000    459.24533   -252.27895    167.20529       21.977       21.977       21.977            0            0            0    57.974094    136.38006    307.26171   -306.12984    43.357963     391.1087 
  133500    443.48931   -252.83461   -94.495058       21.977       21.977       21.977            0            0            0   -169.01526    92.638723   -207.10864   -103.44153    113.14244    161.23035 
  134000    432.44801   -253.67872   -139.55274       21.977       21.977       21.977            0            0            0    552.85895   -758.10422   -213.41295    380.65421     229.6856   -255.29928 
  134500    399.77068   -252.01777    335.61478       21.977       21.977       21.977            0            0            0    1205.3409   -154.73659   -43.759998   -389.68725    857.87034   -50.405644 
  135000    417.55413   -253.58243   -350.73137       21.977       21.977       21.977            0            0            0   -1744.8746    258.79649    433.88395     105.2185      693.315   -327.25392 
  135500    466.36893   -253.84977   -172.97039       21.977       21.977       21.977            0            0            0   -119.08497    347.55238   -747.37857   -200.27216    268.83929    668.43558 
  136000    468.39635     -252.381     258.1813       21.977       21.977       21.977            0            0            0    -76.97041    223.55031    627.96401   -57.017243    119.78541   -223.25296 
  136500      438.366   -254.14451   -140.52792       21.977       21.977       21.977            0            0            0   -81.233096    348.17666   -688.52733    247.63766    762.76802    376.56049 
  137000    443.93408   -253.09225   -114.20924       21.977       21.977       21.977            0            0            0   -168.20837   -254.13338    79.714045   -264.11111    730.25001    351.55238 
  137500    461.33694   -252.09628     541.5788       21.977       21.977       21.977            0            0            0    1655.0403   -720.12112    689.81726   -46.644244    690.12026    68.118203 
  138000    478.05038   -254.31685   -162.28465       21.977       21.977       21.977            0            0            0   -311.63854   -325.01667    149.80126    -43.85683   -345.63728   -234.08524 
  138500    440.71195   -253.49521   -239.57201       21.977       21.977       21.977            0            0            0   -1028.3874    358.04467   -48.373331    358.48289   -600.42217   -612.86925 
  139000    466.04103   -252.74574    196.82595       21.977       21.977       21.977            0            0            0    180.53427    136.46108    273.48251   0.15717496   -575.60656   -111.35607 
  139500    457.22337   -254.06926   -204.53841       21.977       21.977       21.977            0            0            0    311.68505   -62.109449   -863.19083   -345.30716   -262.96279    220.22478 
  140000    494.58087   -254.36812   -242.57604       21.977       21.977       21.977            0            0            0   -796.19063    -864.3578     932.8203    66.100794   -79.584379   -2.1178545 
  140500    466.79398   -252.46614    58.233533       21.977       21.977       21.977            0            0            0    544.83271   -296.11964   -74.012474    343.91172    155.74005   -424.19615 
  141000     426.0489   -253.25227   -204.67483       21.977       21.977       21.977            0            0            0   -258.79819   -460.52573    105.29942   -689.44446     523.5343   -365.83757 
  141500    483.03987   -254.51654   -291.84166       21.977       21.977       21.977            0            0            0    156.34334   -1744.5833    712.71501   -199.38062   -35.776047   -437.80479 
  142000    454.50191   -253.16071    51.936481       21.977       21.977       21.977            0            0            0   -30.016505    466.39793   -280.57198    509.79271     744.1865   -1077.1248 
  142500    434.39817    -252.5473   -42.780898       21.977       21.977       21.977            0            0            0   -169.88605   -295.96092    337.50428    38.612073    627.29224   -192.29659 
  143000    463.18363    -253.0604    88.007053       21.977       21.977       21.977            0            0            0   -41.300959   -818.09022    1123.4123    379.14943    344.47739    319.42454 
  143500    437.42243   -253.96729   -293.12531       21.977       21.977       21.977            0            0            0    -578.9006   -46.071719   -254.40361    47.666787    170.50343   -649.83225 
  144000    440.08778    -252.5038     169.7893       21.977       21.977       21.977            0            0            0   -439.69237    48.957466    900.10282    -359.2951    347.11785   -402.27679 
  144500    459.45047   -252.97227    64.834385       21.977       21.977       21.977            0            0            0    15.386516    -387.1929    566.30954   -85.644676    626.30256    99.033113 
  145000    478.70924   -254.13444   -35.945031       21.977       21.977       21.977            0            0            0   -436.16452    208.50422     119.8252     913.6555   -389.39103    399.64592 
  145500    472.94161    -253.5829    16.588982       21.977       21.977       21.977            0            0            0   -508.84207    174.17258    384.43644      68.8222   -148.28988   -123.77799 
  146000      450.918   -254.52996   -456.52857       21.977       21.977       21.977            0            0            0   -1650.5564   -98.348932    379.31961    133.42828   -648.34208   -17.178282 
  146500    421.25689   -253.19649    -162.3941       21.977       21.977       21.977            0            0            0   -140.02939   -231.76707   -115.38583   -269.65837   -484.16266   -202.82422 
  147000    461.97337   -254.89692    -528.7232       21.977       21.977       21.977            0            0            0   -377.81626   -1189.8032   -18.550159    274.74185    386.17761    29.476682 
  147500     453.7311   -253.65266    -260.9612       21.977       21.977       21.977            0            0            0    155.79686   -398.34988    -540.3306   -42.174057    745.17426   -178.67714 
  148000    415.13101   -252.93588   -159.01644       21.977       21.977       21.977            0            0            0   -346.05234    898.38867   -1029.3857   -149.09271   -205.76281   -191.86578 
  148500    459.71297   -251.33152    907.54466       21.977       21.977       21.977            0            0            0    465.96448    1332.1222    924.54726    85.069964    281.36994    351.81446 
  149000    436.92844    -254.3676   -513.37908       21.977       21.977       21.977            0            0            0   -1023.9132    113.87587   -630.09987    816.85344    205.43501    281.48556 
  149500    437.85928   -252.74596     211.7016       21.977       21.977       21.977            0            0            0    236.08938    349.19739    49.818045   -198.63291   -165.14152    79.983613 
  150000    423.76775   -253.72189   -333.81822       21.977       21.977       21.977            0            0            0   -683.86055   -896.04303    578.44894     80.51284     392.7696   -429.37693 
  150500    442.05865   -252.65975    95.646217       21.977       21.977       21.977            0            0            0    146.76947     -116.559    256.72819   -97.294703    62.209965   -116.52527 
  151000    442.17353   -253.88607   -354.64443       21.977       21.977       21.977            0            0            0   -170.14193    11.640257    -905.4316   -150.11391   -681.07855    8.6584266 
  151500     459.6656   -252.07622     381.5813       21.977       21.977       21.977            0            0            0    594.20478    1248.2845    -697.7454    319.71674    65.546332   -3.2759347 
  152000    468.52082   -253.28695   -74.470033       21.977       21.977       21.977            0            0            0   -501.05907   -610.63024    888.27921    188.42172   -783.00432   -239.21434 
  152500    454.12921   -252.29773    227.65645       21.977       21.977       21.977            0            0            0   -42.896597    533.49356    192.37238   -346.01861   -175.96423    344.61351 
  153000    437.00479   -253.67532   -211.13346       21.977       21.977       21.977            0            0            0    -775.6568   -237.45639    379.71281    213.88754    215.95029   -499.29172 
  153500    474.24072   -253.61133    -129.1213       21.977       21.977       21.977            0            0            0   -25.076807    349.98841    -712.2755    153.18106   -582.77282    90.225422 
  154000    431.65116     -252.899     -95.5017       21.977       21.977       21.977            0            0            0   -435.06048    -394.5213    543.07668   -68.730294    629.46856   -476.87796 
  154500    426.12362    -254.2188   -534.90843       21.977       21.977       21.977            0            0            0     10.22997   -640.13096   -974.82431   -584.52165   -336.08558    116.01677 
  155000    463.05282   -254.27874    -511.1156       21.977       21.977       21.977            0            0            0   -22.446225   -811.38392   -699.51665    -842.4772    488.52188   -36.251501 
  155500    421.58586   -251.16815    309.47486       21.977       21.977       21.977            0            0            0    4.2083486   -481.99985    1406.2161    30.568018   -253.53833     848.4031 
  156000    414.21372   -253.54949   -361.22628       21.977       21.977       21.977            0            0            0    152.96512   -67.074773   -1169.5692   -402.17545   -25.382937    -175.9319 
  156500    429.76223   -252.84833   -162.75303       21.977       21.977       21.977            0            0            0   -323.40163   -123.06217   -41.795294   -631.71718    113.99164     56.04496 
  157000    451.01309   -253.24881    -117.3711       21.977       21.977       21.977            0            0            0   -630.72661    126.59875    152.01456    128.30733     422.4923   -473.30422 
  157500    481.92533   -252.36827    312.46888       21.977       21.977       21.977            0            0            0    529.12842    485.68946   -77.411259    374.74308   -212.38111   -805.18024 
  158000    445.29584   -253.82576   -365.92977       21.977       21.977       21.977            0            0            0   -35.781327   -1136.8543    74.846302   -734.99515    108.11968    -298.9096 
  158500    440.07336    -254.3425    -347.9868       21.977       21.977       21.977            0            0            0   -16.441017   -792.32973   -235.18964    631.37003    448.83068   -37.459194 
  159000     482.1268   -250.88474    829.30786       21.977       21.977       21.977            0            0            0    1028.2508    1052.4928    407.18002    751.45585   -914.09761   -404.90543 
  159500    426.08043   -253.13842   -144.48617       21.977       21.977       21.977            0            0            0    24.437766   -111.59816   -346.29813   -339.48383   -320.26292    8.4007647 
  160000    412.70951   -253.62967   -137.23694       21.977       21.977       21.977            0            0            0    11.414685   -241.39649   -181.72902    350.28323   -245.05229    295.12903 
  160500    420.62711   -253.02556    88.706187       21.977       21.977       21.977            0            0            0    608.93552   -81.254907   -261.56205   -53.771252   -13.839906   -63.992001 
  161000     444.5217   -252.89523   -203.08319       21.977       21.977       21.977            0            0            0    12.855802   -793.59549    171.49011    415.38494   -392.31053    198.09729 
  161500    531.14934   -253.00222    606.54582       21.977       21.977       21.977            0            0            0    494.53601     1117.384    207.71743    595.29654   -292.65394   -241.85338 
  162000    453.04861   -252.84429   -30.045626       21.977       21.977       21.977            0            0            0    609.83439   -597.57929   -102.39198    369.64556   -271.29326   -341.88859 
  162500    465.91927   -253.18531    238.43428       21.977       21.977       21.977            0            0            0    98.973513   -81.233878    697.56322     392.6558   -534.23681   -680.55139 
  163000    469.01528   -253.59732   -49.578092       21.977       21.977       21.977            0            0            0   -353.91321   -46.782475    251.96141   -83.001635   -444.42092   -1122.7969 
  163500     456.7543   -252.89493   -168.45129       21.977       21.977       21.977            0            0            0   -504.88307   -513.49089    513.02008   -488.95603    -325.7808    18.587616 
  164000    445.88182   -252.75475    -15.50476       21.977       21.977       21.977            0            0            0   -441.64957    193.64122    201.49408    217.57892     380.8125    322.95758 
  164500     431.5143   -252.70926    218.18507       21.977       21.977       21.977            0            0            0    848.51163   -367.52432    173.56789   -221.70129    827.20961    172.01814 
  165000    426.72435   -252.85157     175.5382       21.977       21.977       21.977            0            0            0    680.35561   -878.93383    725.19283   -975.41123    564.62473    195.72342 
  165500    463.58338   -253.80764   -155.74148       21.977       21.977       21.977            0            0            0   -299.01205    -175.9343    7.7219022    48.424726    694.22173   -530.29933 
  166000    494.27746   -251.94706    379.31294       21.977       21.977       21.977            0            0            0    374.00995    393.03879    370.89007   -267.03515    15.604527   -203.87038 
  166500    413.88693   -253.81153   -293.97684       21.977       21.977       21.977            0            0            0   -30.226555   -737.15592   -114.54804    404.52007    -528.0017   -429.30111 
  167000    437.87784   -253.63292   -222.43349       21.977       21.977       21.977            0            0            0    239.07339   -760.58111   -145.79274    103.40441    510.18514    681.06368 
  167500    470.55021   -252.84388    53.370528       21.977       21.977       21.977            0            0            0   -40.673709   -375.10339    575.88868    107.04138   -428.73869    147.64459 
  168000    454.64224   -252.11817    309.34127       21.977       21.977       21.977            0            0            0    663.12553    9.8510149    255.04728    101.79584   -192.10741    214.42298 
  168500    457.06744   -252.55593    369.63252       21.977       21.977       21.977            0            0            0    989.73635    144.14582   -24.984602    305.47462    306.22431    339.86443 
  169000    440.23232   -252.99669    110.27606       21.977       21.977       21.977            0            0            0    671.54575   -67.954205   -272.76337    540.66877   -108.72386   -450.65269 
  169500    454.15427   -253.47641   -144.94934       21.977       21.977       21.977            0            0            0    -304.8838    82.719638   -212.68385   -272.78312   -189.17779   -456.96901 
  170000    480.02384   -254.39411   -238.65904       21.977       21.977       21.977            0            0            0     -598.774    121.58361   -238.78673    269.89106    676.33383   -14.720348 
  170500    419.47988   -254.20027   -2.2071526       21.977       21.977       21.977            0            0            0   -272.73721   -1182.0115    1448.1272   -480.77728    -131.2241   -132.55272 
  171000    475.82092   -252.31129    102.08394       21.977       21.977       21.977            0            0            0   -1.3908443    298.43165    9.2110034      58.5281    107.52484    284.24097 
  171500    489.59902   -253.02519     317.3702       21.977       21.977       21.977            0            0            0     389.1236   -71.516893    634.50389   -212.23405   -131.94236    105.79339 
  172000    450.27773   -253.69323   -174.09945       21.977       21.977       21.977            0            0            0    130.54285   -309.68733   -343.15385   -67.666425    270.03025     57.07682 
  172500    428.41878   -253.04943   -17.527666       21.977       21.977       21.977            0            0            0    146.48724   -616.74881    417.67857    53.746333   -160.60954    54.609731 
  173000     437.6117   -253.54158   -432.51348       21.977       21.977       21.977            0            0            0   -177.86323    33.293463   -1152.9707    222.82219    222.71254   -84.448502 
  173500    522.04181   -253.80425   -101.48607       21.977       21.977       21.977            0            0            0   -829.76481     612.3241   -87.017507   -13.279693    36.261384    338.00321 
  174000    443.85098   -252.41587     157.4496       21.977       21.977       21.977            0            0            0   -351.55522   -105.33927    929.24328   -93.315045    224.40156   -318.38691 
  174500    451.43411   -252.61688    165.78504       21.977       21.977       21.977            0            0            0   -290.85203    598.22929    189.97784   -121.17136    601.53906    327.31782 
  175000    443.99578   -253.90572   -290.71338       21.977       21.977       21.977            0            0            0    526.74714   -947.83611   -451.05118   -427.07302   -604.35067    136.11755 
  175500    447.82391   -252.70627    27.230826       21.977       21.977       21.977            0            0            0   -604.30843    642.77805    43.222861   -93.328386    190.91734   -605.57199 
  176000    428.49168   -252.97918    150.81268       21.977       21.977       21.977            0            0            0   -183.15806    446.08945    189.50663   -212.74732    -181.3511    54.807279 
  176500     474.9532   -253.74865   -255.46896       21.977       21.977       21.977            0            0            0   -548.11494     325.1198   -543.41174     332.6447   -121.05398   -554.66709 
  177000    456.88439    -254.7526   -623.98415       21.977       21.977       21.977            0            0            0   -784.75407   -914.73208   -172.46631   -516.92474   -161.83816   -31.719454 
  177500     415.3714    -252.7602    49.414671       21.977       21.977       21.977            0            0            0     4.724667    372.50242   -228.98307    124.05034   -328.96142    427.48095 
  178000    472.31011   -253.74547    -184.0499       21.977       21.977       21.977            0            0            0    23.711001   -79.319386   -496.54131    -204.5237   -688.51681    88.895922 
  178500    424.54124   -251.49325    213.32005       21.977       21.977       21.977            0            0            0    211.46966   -71.400178    499.89067    127.13594    774.55318    13.402158 
  179000    491.81375   -254.42329   -137.60656       21.977       21.977       21.977            0            0            0   -563.47432    438.84591   -288.19127   -610.27939    645.38738   -129.56977 
[...]
  454500    438.72599   -251.44462    474.02969       21.977       21.977       21.977            0            0            0    446.95999    409.39966    565.72941   -853.88446   -427.48771    298.44064 
  455000     444.1988   -251.45374    352.53599       21.977       21.977       21.977            0            0            0    825.99934    305.41314   -73.804523    878.86845    270.82838    99.798078 
  455500    460.76448     -253.752    -281.0356       21.977       21.977       21.977            0            0            0    85.229136   -551.08202   -377.25392    34.072362   -479.94076    61.487804 
  456000    410.18838   -253.06384   -235.73595       21.977       21.977       21.977            0            0            0    -338.3013   -362.48873   -6.4178015    182.60136    719.36031    17.957297 
  456500    413.58778   -252.69791    22.881238       21.977       21.977       21.977            0            0            0    585.36677   -77.303566   -439.41949   -76.760028    433.08014   -246.83149 
  457000    416.19358   -253.41434   -436.60036       21.977       21.977       21.977            0            0            0   -837.78824   -274.26178   -197.75105    108.05195   -887.58427    510.14626 
  457500    428.74675   -254.03847   -280.51753       21.977       21.977       21.977            0            0            0   -135.23715   -849.45257    143.13713    31.359136    54.830861   -58.226036 
  458000    442.75483   -254.12147   -424.54829       21.977       21.977       21.977            0            0            0    384.81651     -809.901   -848.56038    347.47302   -260.88251    31.729466 
  458500     437.9578   -253.67368   -351.01291       21.977       21.977       21.977            0            0            0   -747.19307   -100.91985   -204.92579   -706.93649    2.4279311    107.88039 
  459000    476.74934   -252.18101    504.96214       21.977       21.977       21.977            0            0            0    750.39618    967.92801   -203.43778    109.96087   -139.99925   -205.10713 
  459500    441.95638   -252.62448    180.79464       21.977       21.977       21.977            0            0            0    67.517182    222.34221    252.52452    304.78257   -17.087503   -143.27695 
  460000    464.23563   -253.15928   -113.79455       21.977       21.977       21.977            0            0            0    211.17003    3.2894229   -555.84309   -1081.3842    87.100056    120.08846 
  460500    427.88889   -253.15899   -107.40381       21.977       21.977       21.977            0            0            0   -147.51266    -152.0926   -22.606182     90.64621    746.33182   -17.644423 
  461000    512.59057   -252.42798    433.77736       21.977       21.977       21.977            0            0            0    799.10338    789.13774   -286.90903    261.66186    102.39143   -393.76373 
  461500    484.39074    -251.8537    558.56265       21.977       21.977       21.977            0            0            0   -374.02346    1089.3248    960.38667    244.34331    170.81702   -612.60759 
  462000    488.80128   -252.01109    381.17429       21.977       21.977       21.977            0            0            0    592.55617    129.10503    421.86166    341.60806    99.253571    152.62136 
  462500    438.33225   -253.37782   -24.461526       21.977       21.977       21.977            0            0            0   -749.49578    245.73849    430.37271     251.8392   -666.70215   -182.00229 
  463000    441.26879    -251.9503    246.22733       21.977       21.977       21.977            0            0            0    407.75074    536.24351   -205.31226   -215.09937    856.07021   -105.25598 
  463500     472.5312    -252.3403     280.5788       21.977       21.977       21.977            0            0            0    182.94534    19.916065    638.87499    240.72554    135.12164    589.74726 
  464000    485.25991   -253.85417   -95.082776       21.977       21.977       21.977            0            0            0    189.73246   -612.39247    137.41168    405.06227   -297.65738   -132.97729 
  464500    434.59077   -252.42552   -51.442037       21.977       21.977       21.977            0            0            0    1115.4813   -734.35236   -535.45504   -1001.2922   -491.19116   -17.713471 
  465000    465.75156   -251.49464    710.00496       21.977       21.977       21.977            0            0            0    350.36585    344.78873    1434.8603    500.21518    709.55823    91.558333 
  465500    457.10284   -253.26898    48.121647       21.977       21.977       21.977            0            0            0   -251.70563    -72.35445    468.42502    223.92412   -592.76758   -182.77392 
  466000    428.01324   -252.26975    476.34078       21.977       21.977       21.977            0            0            0    1642.9519    194.38268   -408.31226   -428.49796   -28.518546   -695.91837 
  466500    440.32412    -253.7903   -386.31364       21.977       21.977       21.977            0            0            0   -14.112975   -312.30462   -832.52332   -277.77098   -552.77671    250.89209 
  467000    466.06399    -253.0314    13.525445       21.977       21.977       21.977            0            0            0    79.912404    22.770077   -62.106147   -255.15094   -346.33626   -395.70592 
  467500    449.64277   -252.86734    262.90181       21.977       21.977       21.977            0            0            0    514.78051    140.38985    133.53508   -257.89597    28.395264   -152.71363 
  468000     437.8701   -253.97823   -399.75152       21.977       21.977       21.977            0            0            0   -461.26924   -753.62167    15.636343    109.76007    211.89598     686.2447 
  468500    412.79802   -253.60862   -399.80367       21.977       21.977       21.977            0            0            0   -48.302108   -434.30858   -716.80031    275.90122    -383.1069   -313.37257 
  469000    440.11708   -254.46388   -408.10746       21.977       21.977       21.977            0            0            0   -62.013441   -69.864786   -1092.4442    122.22907    306.41815    393.04939 
  469500    432.62963   -253.15428    28.689019       21.977       21.977       21.977            0            0            0    1053.1535    -657.6062   -309.48022    93.547296    414.20348   -17.343499 
  470000    420.49725   -254.46295   -532.76789       21.977       21.977       21.977            0            0            0   -1484.8131    134.63951   -248.13007    -318.0215   -279.83257    651.70082 
  470500    399.19052   -252.98453   -330.24202       21.977       21.977       21.977            0            0            0   -756.62763     22.40138    -256.4998    689.26289   -448.89575   -98.525569 
  471000    462.10259   -253.23694    57.887947       21.977       21.977       21.977            0            0            0    105.70533   -214.76498    282.72349    356.62165    43.230691   -379.16759 
  471500    449.56433   -251.87854    507.99747       21.977       21.977       21.977            0            0            0    213.30696    959.85671    350.82875    758.72142    271.88399    258.15414 
  472000    424.97824   -253.03983   -191.86885       21.977       21.977       21.977            0            0            0   -227.77156    9.9846811   -357.81968    524.80824    184.15203    353.46249 
  472500    442.98177   -253.88113   -129.54407       21.977       21.977       21.977            0            0            0   -602.88111    -267.1909    481.43981    429.69185    111.97777    793.36425 
  473000    420.79812   -252.07232    103.67311       21.977       21.977       21.977            0            0            0    938.07038   -780.71624    153.66519    -698.6767    -93.73981   -183.69381 
  473500    403.27733   -252.47897    73.871533       21.977       21.977       21.977            0            0            0    639.66984    462.92118   -880.97642   -5.2372522   -298.74765   -472.71251 
  474000    446.97583   -252.95347   -130.32252       21.977       21.977       21.977            0            0            0   -69.308183   -495.99499    174.33562    174.19779   -113.86687    378.14614 
  474500    456.03304   -252.38558     321.1025       21.977       21.977       21.977            0            0            0   -261.24624    1159.6398    64.913924    358.06998    92.643399   -202.09511 
  475000    447.20209   -254.82915   -519.36763       21.977       21.977       21.977            0            0            0    -1657.504    192.99955   -93.598446    107.98934   -650.36529    328.25055 
  475500    474.67837   -251.84577    498.10326       21.977       21.977       21.977            0            0            0    190.07921     631.0675    673.16307    557.74481   -464.22699     339.1714 
  476000    424.43305   -255.23993   -788.34989       21.977       21.977       21.977            0            0            0   -656.75847    -702.2614   -1006.0298    355.07391   -95.423794   -663.77349 
  476500    398.59604    -253.6175   -460.06921       21.977       21.977       21.977            0            0            0   -241.71664   -267.78589   -870.70509   -327.28073    263.69522    238.75654 
  477000    432.77564   -252.84939    -124.2342       21.977       21.977       21.977            0            0            0    382.11877    47.832714   -802.65409   -421.49681   -107.92918   -593.06465 
  477500    426.32982   -253.07797    58.447313       21.977       21.977       21.977            0            0            0     116.5635     33.09013    25.688311    738.38893   -72.642203    127.92083 
  478000    498.38907    -253.3191    210.31683       21.977       21.977       21.977            0            0            0    894.96344    830.35251   -1094.3655    253.96155    217.89845     157.9262 
  478500    467.67739   -253.41709   -23.647971       21.977       21.977       21.977            0            0            0    742.50843    199.84859   -1013.3009   -160.36973     287.1429   -248.17751 
  479000    448.83355   -252.56858    232.69425       21.977       21.977       21.977            0            0            0    565.86203    81.235556     50.98517   -115.24128   -335.88281    30.376828 
  479500    457.69568   -253.78669   -350.06483       21.977       21.977       21.977            0            0            0    380.11209   -1068.0648   -362.24177   -100.92654    -27.48249    256.32464 
  480000    468.70176   -252.59837    291.05117       21.977       21.977       21.977            0            0            0   -175.76376    480.78363    568.13363   -479.59674   -259.64411    367.98823 
  480500    456.61742   -252.09081    250.08142       21.977       21.977       21.977            0            0            0    1122.5056   -473.61554    101.35416    297.90215   -681.22448   -910.29213 
  481000    468.65816   -252.72933    259.44426       21.977       21.977       21.977            0            0            0    747.36565   -184.62293    215.59008   -92.343651    373.99115    50.638546 
  481500    452.29044   -254.38775   -395.49278       21.977       21.977       21.977            0            0            0   -943.13924   -72.961497   -170.37762    442.16156   -286.89386    -367.4329 
  482000    397.78037   -253.11614    -242.1184       21.977       21.977       21.977            0            0            0   -338.07807   -31.296103   -356.98102   -3.7763236   -433.44292   -50.799089 
  482500    440.05953   -252.93548   -114.26511       21.977       21.977       21.977            0            0            0    520.65244    -771.2959   -92.151858   -151.69563   -665.27654    704.30383 
  483000    463.84337   -253.91451   -294.65429       21.977       21.977       21.977            0            0            0   -626.36225   -400.67023    143.06961     716.2334   -656.87944   -320.94827 
  483500    480.05404   -252.59492    271.85956       21.977       21.977       21.977            0            0            0   -326.25986    744.82896    397.00957     306.4366    325.26346    519.15527 
  484000    412.06285   -253.13944   -304.63401       21.977       21.977       21.977            0            0            0   -547.97545   -982.63091    616.70433   -237.60732    306.92775    513.24956 
  484500    474.07726   -253.51813   -107.02773       21.977       21.977       21.977            0            0            0   -149.52071   -122.97088   -48.591586    230.55834    21.703717   -180.53248 
  485000    438.69311   -252.67764    207.38961       21.977       21.977       21.977            0            0            0   -11.247871     537.9649    95.451788   -269.67687   -6.9402721   -234.51367 
  485500    489.36627   -252.46918    360.98963       21.977       21.977       21.977            0            0            0    307.94426    366.02336    409.00128   -493.34733   -295.48015   -10.392294 
  486000    439.39255   -252.89347    390.22482       21.977       21.977       21.977            0            0            0    495.10585    209.15716    466.41145   -193.23795    209.85793    -28.80249 
  486500    461.35695   -252.79705   -11.036491       21.977       21.977       21.977            0            0            0    162.77378    679.64161   -875.52486    -293.7091    794.37399     189.5428 
  487000    452.36477   -251.71914    593.48429       21.977       21.977       21.977            0            0            0    226.92915    368.60865    1184.9151    136.77758   -485.54791    174.66528 
  487500    453.67278   -254.31259    -343.5926       21.977       21.977       21.977            0            0            0    256.02668   -727.53616   -559.26834    241.95691   -200.61486   -23.442184 
  488000    452.38523   -253.85448   -250.82785       21.977       21.977       21.977            0            0            0   -641.63703    -244.1768    133.33028    105.18679   -654.39947    331.57605 
  488500     462.3037   -251.26595     440.6416       21.977       21.977       21.977            0            0            0   -395.49106    405.87711    1311.5387   -354.22843   -1.8013135   -122.99537 
  489000    445.04398   -252.30236    128.65221       21.977       21.977       21.977            0            0            0   -1141.9262    631.44125    896.44163    154.91844   -410.57011   -168.83858 
  489500    434.44589   -252.57131   -62.523877       21.977       21.977       21.977            0            0            0    147.10391    122.21017   -456.88571   -899.61884    -463.0836     335.8481 
  490000     442.6684   -253.21689   -26.359531       21.977       21.977       21.977            0            0            0    279.58677     184.8272   -543.49257   -403.54733    226.29508   -515.16744 
  490500     440.8233   -253.37284   -74.918174       21.977       21.977       21.977            0            0            0    140.41239   -370.17233    5.0054118    189.55426   -316.91348     687.0425 
  491000    488.70191   -254.20075   -470.42564       21.977       21.977       21.977            0            0            0    99.396098   -1148.8511   -361.82194   -12.075767   -228.33958     434.0748 
  491500    443.43812   -254.01614   -220.63449       21.977       21.977       21.977            0            0            0    273.29583   -100.28715   -834.91215    637.48953   -143.00168   -1084.9066 
  492000     478.4754   -252.01408    532.19642       21.977       21.977       21.977            0            0            0    346.99705    1028.7005    220.89174     292.1527     864.1659    610.77104 
  492500    442.78405   -252.11919    477.19034       21.977       21.977       21.977            0            0            0    489.66621    568.35507    373.54973    153.38316   -29.906188    579.06675 
  493000    393.88546    -252.3191    51.069888       21.977       21.977       21.977            0            0            0    477.94458   -628.48487    303.74996   -147.46602    581.94021   -174.38737 
  493500    447.74028    -252.5084    59.179419       21.977       21.977       21.977            0            0            0   -119.37149    304.05676   -7.1470164   -772.34568    630.17233    50.057655 
  494000    480.02802    -253.1999   -71.247142       21.977       21.977       21.977            0            0            0     -736.317    396.78931    125.78626    96.003938    425.04065   -206.82721 
  494500    435.89624   -253.27959   -299.73759       21.977       21.977       21.977            0            0            0    -745.4299   -64.417498   -89.365378    -309.5132   -507.58528    -22.78902 
  495000    431.57579   -252.59827    14.363784       21.977       21.977       21.977            0            0            0    494.32121    838.85537   -1290.0852   -470.28607   -447.57336    -577.9939 
  495500    441.97191   -251.72874    318.70592       21.977       21.977       21.977            0            0            0    1193.2205    193.61467   -430.71745   -140.40819    1088.1876   -248.30947 
  496000    412.57876   -253.34523   -153.35669       21.977       21.977       21.977            0            0            0   -650.65593   -106.21468    296.80053     90.46857    456.31095   -208.92365 
  496500    435.83377    -253.3285   -38.943319       21.977       21.977       21.977            0            0            0   -100.57915    84.818025   -101.06884   -78.836159   -111.06943    230.66077 
  497000    444.59059     -252.902    123.09133       21.977       21.977       21.977            0            0            0     158.7674   -146.15093    356.65753   -264.57621   -135.77515   -423.74683 
  497500    477.90551   -251.95371    383.82393       21.977       21.977       21.977            0            0            0    1060.7815     2.923143    87.767175    200.68045    260.34493   -227.53507 
  498000    444.15046   -252.13231     262.4038       21.977       21.977       21.977            0            0            0    175.77766    210.73903    400.69472   -28.140917   -52.210292    284.41836 
  498500    446.49642   -252.43681     161.2959       21.977       21.977       21.977            0            0            0   -599.71311   -395.48229    1479.0831   -129.31844    24.107407    730.54894 
  499000    440.35054   -251.75484     495.1875       21.977       21.977       21.977            0            0            0    583.36665    219.38005    682.81579    29.654543    -403.7769    259.06607 
  499500    455.38612    -252.8513    95.554783       21.977       21.977       21.977            0            0            0    51.234694    862.56117   -627.13151    570.19249   -10.885376    202.15365 
  500000    446.63078    -253.2746    31.235021       21.977       21.977       21.977            0            0            0   -526.17285    261.99744    357.88047   -19.379024    494.35525    770.67951 
Loop time of 397.799 on 2 procs for 500000 steps with 250 atoms

Performance: 217.195 ns/day, 0.110 hours/ns, 1256.916 timesteps/s
94.3% CPU use with 2 MPI tasks x no OpenMP threads

MPI task timing breakdown:
Section |  min time  |  avg time  |  max time  |%varavg| %total
---------------------------------------------------------------
Pair    | 298.25     | 312.95     | 327.66     |  83.1 | 78.67
Neigh   | 5.537      | 5.6594     | 5.7819     |   5.1 |  1.42
Comm    | 12.129     | 26.968     | 41.808     | 285.7 |  6.78
Output  | 44.627     | 44.631     | 44.634     |   0.1 | 11.22
Modify  | 6.4013     | 6.438      | 6.4747     |   1.4 |  1.62
Other   |            | 1.148      |            |       |  0.29

Nlocal:    125 ave 127 max 123 min
Histogram: 1 0 0 0 0 0 0 0 0 1
Nghost:    1437 ave 1437 max 1437 min
Histogram: 2 0 0 0 0 0 0 0 0 0
Neighs:    8670 ave 9339 max 8001 min
Histogram: 1 0 0 0 0 0 0 0 0 1

Total # of neighbors = 17340
Ave neighs/atom = 69.36
Neighbor list builds = 14688
Dangerous builds = 0

Total wall time: 0:06:40
