LAMMPS (16 Jul 2018)
echo both

include		in.temp
variable	temperature equal 600.
variable	tempDamp equal 0.1 # approx 0.1 ps
include		in.pressure
variable	pressure equal 1.
variable	pressureDamp equal 1.0
include 	in.seed
variable	seed equal 74581
units		metal
include		in.box
read_data	data.equil
  orthogonal box = (0 0 0) to (21.977 21.977 21.977)
  1 by 1 by 2 MPI processor grid
  reading atoms ...
  250 atoms
  reading velocities ...
  250 velocities

variable 	mass equal 22.98977
mass            1 ${mass}
mass            1 22.98977
include 	in.setup
variable	out_freq equal 500
variable	out_freq2 equal 500

neigh_modify    delay 10 every 1
include		in.na
pair_style      eam/fs
pair_coeff      * * Na_MendelevM_2014.eam.fs Na

timestep	0.002 # According to Frenkel and Smit is 0.001

thermo          ${out_freq}
thermo          500
thermo_style 	custom step temp pe press lx ly lz xy xz yz pxx pyy pzz pxy pxz pyz


restart 	${out_freq} restart.lmp restart2.lmp
restart 	500 restart.lmp restart2.lmp



# NPT

fix             1 all nve
fix             2 all temp/csvr ${temperature} ${temperature} ${tempDamp} ${seed}
fix             2 all temp/csvr 600 ${temperature} ${tempDamp} ${seed}
fix             2 all temp/csvr 600 600 ${tempDamp} ${seed}
fix             2 all temp/csvr 600 600 0.1 ${seed}
fix             2 all temp/csvr 600 600 0.1 74581

velocity        all create ${temperature} ${seed} dist gaussian
velocity        all create 600 ${seed} dist gaussian
velocity        all create 600 74581 dist gaussian

run             5000
Neighbor list info ...
  update every 1 steps, delay 10 steps, check yes
  max neighbors/atom: 2000, page size: 100000
  master list distance cutoff = 11.2
  ghost atom cutoff = 11.2
  binsize = 5.6, bins = 4 4 4
  1 neighbor lists, perpetual/occasional/extra = 1 0 0
  (1) pair eam/fs, perpetual
      attributes: half, newton on
      pair build: half/bin/atomonly/newton
      stencil: half/bin/3d/newton
      bin: standard
Per MPI rank memory allocation (min/avg/max) = 3.01 | 3.01 | 3.01 Mbytes
Step Temp PotEng Press Lx Ly Lz Xy Xz Yz Pxx Pyy Pzz Pxy Pxz Pyz 
       0          600   -257.19306   -813.14934       21.977       21.977       21.977            0            0            0   -1330.7252   -791.51749   -317.20535    83.529236    502.54562    80.703837 
     500    551.08772   -248.97091    1587.9056       21.977       21.977       21.977            0            0            0    1364.7563    2173.5457    1225.4149    849.02974   -13.669832   -64.706121 
    1000    565.55779   -248.56706    1902.8965       21.977       21.977       21.977            0            0            0    1623.1971    2399.3808    1686.1116    923.11472    108.32248   -133.57247 
    1500    596.73392   -247.90715    1853.6657       21.977       21.977       21.977            0            0            0    1350.5753    2040.5505    2169.8712   -397.50116    127.16706   -342.16765 
    2000    574.85624   -249.75135    1309.1537       21.977       21.977       21.977            0            0            0    1733.0454    667.25686    1527.1588    209.55868   -26.158106    27.494919 
    2500    657.99126   -248.37244     2073.301       21.977       21.977       21.977            0            0            0    2642.2557    2587.3346    990.31267   -216.89153    94.264376   -561.25183 
    3000    599.18684   -249.22063    1719.0768       21.977       21.977       21.977            0            0            0    1545.6016    1873.3164    1738.3123   -403.88075   -153.38391   -161.85595 
    3500    580.67028   -248.95063    1611.9579       21.977       21.977       21.977            0            0            0    1075.7807    2011.8828    1748.2101   -108.11256    482.54388    3.6913346 
    4000    612.99176   -248.93673     1607.733       21.977       21.977       21.977            0            0            0    2115.5817     1395.866    1311.7514   -45.696396    311.05207   -354.36802 
    4500    555.32816   -247.63977    2032.9461       21.977       21.977       21.977            0            0            0    2633.6171    1459.7977    2005.4235   -776.79938    240.44422    149.56491 
    5000    562.70449    -248.2403    1987.6422       21.977       21.977       21.977            0            0            0    2633.7224     860.8696    2468.3347    1079.5011   -493.82239   -454.62195 
Loop time of 3.51533 on 2 procs for 5000 steps with 250 atoms

Performance: 245.780 ns/day, 0.098 hours/ns, 1422.340 timesteps/s
94.8% CPU use with 2 MPI tasks x no OpenMP threads

MPI task timing breakdown:
Section |  min time  |  avg time  |  max time  |%varavg| %total
---------------------------------------------------------------
Pair    | 2.6301     | 2.7804     | 2.9307     |   9.0 | 79.09
Neigh   | 0.064241   | 0.066746   | 0.06925    |   1.0 |  1.90
Comm    | 0.12478    | 0.27733    | 0.42989    |  29.0 |  7.89
Output  | 0.35153    | 0.35158    | 0.35162    |   0.0 | 10.00
Modify  | 0.028029   | 0.028062   | 0.028095   |   0.0 |  0.80
Other   |            | 0.01125    |            |       |  0.32

Nlocal:    125 ave 125 max 125 min
Histogram: 2 0 0 0 0 0 0 0 0 0
Nghost:    1418 ave 1423 max 1413 min
Histogram: 1 0 0 0 0 0 0 0 0 1
Neighs:    8619 ave 8987 max 8251 min
Histogram: 1 0 0 0 0 0 0 0 0 1

Total # of neighbors = 17238
Ave neighs/atom = 68.952
Neighbor list builds = 170
Dangerous builds = 0

unfix		1
unfix		2

reset_timestep	0

timer 		timeout 23:50:00 every 1000
New timer settings: style=normal  mode=nosync  timeout=23:50:00

fix             1 all plumed plumedfile plumed.dat outfile plumed.out
fix             2 all nve
fix             3 all temp/csvr ${temperature} ${temperature} ${tempDamp} ${seed}
fix             3 all temp/csvr 600 ${temperature} ${tempDamp} ${seed}
fix             3 all temp/csvr 600 600 ${tempDamp} ${seed}
fix             3 all temp/csvr 600 600 0.1 ${seed}
fix             3 all temp/csvr 600 600 0.1 74581

run             500000
Per MPI rank memory allocation (min/avg/max) = 3.01 | 3.01 | 3.01 Mbytes
Step Temp PotEng Press Lx Ly Lz Xy Xz Yz Pxx Pyy Pzz Pxy Pxz Pyz 
       0    562.70449    -248.2403    1987.6422       21.977       21.977       21.977            0            0            0    2633.7224     860.8696    2468.3347    1079.5011   -493.82239   -454.62195 
     500    583.74717   -248.68907    1583.3493       21.977       21.977       21.977            0            0            0    1487.5559    1567.3722      1695.12   -349.79408    33.818827   -348.48286 
    1000    629.52285   -249.40159    1705.6171       21.977       21.977       21.977            0            0            0    1984.6138    2000.1182    1132.1193   -489.03277   -864.64056   -1088.9588 
    1500    552.22648    -245.9647    2702.8005       21.977       21.977       21.977            0            0            0    3473.1913     2228.897    2406.3133    139.67139    860.58865    175.03848 
    2000     565.7571   -248.31121    1806.6353       21.977       21.977       21.977            0            0            0    2038.1238    583.77553    2798.0065   -572.81709   -57.039179   -417.20438 
    2500    667.59044    -247.8922    2097.5276       21.977       21.977       21.977            0            0            0    2569.8764    1398.5791    2324.1273    145.19315    452.73034   -49.480977 
    3000     605.6833   -248.43459    2137.7719       21.977       21.977       21.977            0            0            0    1346.4117    3018.7788    2048.1251   -596.59378    -676.6235    637.78574 
    3500     596.0503    -248.6809    1720.0332       21.977       21.977       21.977            0            0            0    1685.9731     1799.282    1674.8444    88.117408   -242.40221    548.38209 
    4000    592.78749   -248.63854     1976.457       21.977       21.977       21.977            0            0            0    1684.6336    2543.1554    1701.5818   -320.77437    282.20731   -617.34054 
    4500    576.03642   -249.18598    1765.8618       21.977       21.977       21.977            0            0            0    3113.8935    301.84562    1881.8462   -50.631482    260.19375    171.46269 
    5000    583.46975   -247.93097    1854.5566       21.977       21.977       21.977            0            0            0    1184.4006    2825.2622    1554.0068   -923.22419   -235.11154   -351.04158 
    5500    614.18494   -246.57292    2574.2632       21.977       21.977       21.977            0            0            0    2550.4723    2809.9132    2362.4041    160.81324    891.15307    320.65471 
    6000    576.38278   -249.74322    1453.1378       21.977       21.977       21.977            0            0            0    1233.1649    2237.0565    889.19193    449.06458    10.288103   -315.83981 
    6500    627.47734     -246.177    2789.4299       21.977       21.977       21.977            0            0            0    1205.0975    4210.6325    2952.5598    531.67093   -147.65496   -43.819259 
    7000    559.89063    -248.2514     1778.393       21.977       21.977       21.977            0            0            0    1384.2609    2449.8103    1501.1078    632.11719   -410.14167   -460.81952 
    7500    591.82042   -247.64795    2315.4193       21.977       21.977       21.977            0            0            0    2156.9646    1644.0802     3145.213    728.52257   -352.43972   -743.93377 
    8000    597.13965   -248.42591    1818.1919       21.977       21.977       21.977            0            0            0     1631.477    1818.8553    2004.2434   -688.34406    30.340297   -704.70203 
    8500    594.43715   -249.41757    1533.4028       21.977       21.977       21.977            0            0            0    555.44693    2419.8231    1624.9384   -533.43528    626.11279    433.94363 
    9000     596.8336   -249.01517    1597.4344       21.977       21.977       21.977            0            0            0    1015.7112    2472.3503    1304.2417    123.73921    382.70453   -472.98688 
    9500    576.52546   -246.95108    2449.7856       21.977       21.977       21.977            0            0            0    1265.3898    2707.2825    3376.6845    118.49691    131.96316    328.68208 
   10000    594.36237   -247.23093    2302.0096       21.977       21.977       21.977            0            0            0    1596.4684    2221.0665     3088.494    684.22465    630.04492    327.47102 
   10500    594.26872   -249.36373    1634.4768       21.977       21.977       21.977            0            0            0    2146.2123    1396.4304    1360.7877    652.20307    484.82969    1174.2124 
   11000     583.1001   -248.58891    1689.5572       21.977       21.977       21.977            0            0            0    1859.5476    2277.6573    931.46677    884.89483    -8.664094   -622.45498 
   11500    593.41372   -248.53815    1857.9248       21.977       21.977       21.977            0            0            0    2204.1112    1524.3464    1845.3169   -97.926156   -31.287057   -956.47518 
   12000    621.20139   -248.95828    2022.9858       21.977       21.977       21.977            0            0            0    2034.1715    2285.7018    1749.0841   -781.24783    -762.2171    17.138085 
   12500    607.71076    -248.6541    1957.8437       21.977       21.977       21.977            0            0            0    1656.6644    2011.8046    2205.0621   -1452.1346     57.90179    -462.0671 
   13000    573.51172   -245.69242    2754.7043       21.977       21.977       21.977            0            0            0    2284.1033    3539.8715    2440.1381   -725.52661     646.8042   -531.16889 
   13500    657.63302   -246.44198    2751.1319       21.977       21.977       21.977            0            0            0    3004.6663      3241.56    2007.1693     206.7003   -79.125649    40.910634 
   14000    575.82937   -248.25546    2090.6036       21.977       21.977       21.977            0            0            0    3094.7401    1549.6777    1627.3929    300.29838    776.10929    -426.6481 
   14500    614.25218   -247.40258    2384.6366       21.977       21.977       21.977            0            0            0    3290.3839    1111.0654    2752.4603   -919.95049     225.9271   -549.74089 
   15000     599.3095   -247.93287    2033.4551       21.977       21.977       21.977            0            0            0     2450.909    2178.5648    1470.8914   -551.37318   -261.10474   -47.654951 
   15500    558.81435   -249.26236    1493.7461       21.977       21.977       21.977            0            0            0    1972.0524    1456.3657    1052.8201   -248.06125    313.05189    866.20862 
   16000    596.53027   -249.05765    1726.8321       21.977       21.977       21.977            0            0            0    1630.8755    1902.3655    1647.2553   -384.52809   -15.494063    438.53607 
   16500    559.44343   -249.41076     1486.995       21.977       21.977       21.977            0            0            0    1161.3543    1567.1674    1732.4633    242.51214     34.66982   -94.447618 
   17000    640.52302   -245.99845    2864.8061       21.977       21.977       21.977            0            0            0    2809.7652    2178.6981     3605.955    371.94925    295.33922    642.49804 
   17500    628.03922      -247.85    1993.5024       21.977       21.977       21.977            0            0            0    1422.9606     3109.301    1448.2457    517.58617   -543.89397    23.386833 
   18000    621.36191   -248.51062    1975.6502       21.977       21.977       21.977            0            0            0    910.12588    2305.6942    2711.1304   -514.78467    392.86386   -307.42679 
   18500    540.16645   -247.75296    2119.9209       21.977       21.977       21.977            0            0            0    1492.7562    2424.1902    2442.8164   -784.48925   -778.77975   -945.85813 
   19000    560.93722   -248.97234    1769.2302       21.977       21.977       21.977            0            0            0    1320.0407      2507.72    1479.9299    61.196049    218.66352   -143.56825 
   19500    644.82727   -249.81783    1521.8058       21.977       21.977       21.977            0            0            0    1160.1663     2368.199    1037.0521    272.38081   -190.15498    252.45994 
   20000    625.36591   -247.26077    2356.7765       21.977       21.977       21.977            0            0            0    2215.3509     3365.487    1489.4917   -742.33861    84.806006    498.08809 
   20500    589.80204   -247.31834    2405.4236       21.977       21.977       21.977            0            0            0    3182.0185    1590.1735    2444.0789   -760.79985     107.8415    589.83291 
   21000    604.69061   -248.37415    2041.6285       21.977       21.977       21.977            0            0            0    2251.8948    2085.6605    1787.3301    191.14371     639.7901    394.31259 
   21500    628.02648   -247.69068    2134.9189       21.977       21.977       21.977            0            0            0    1673.3603     2211.491    2519.9054    859.24882   -226.45009   -83.017535 
   22000    615.87964   -248.05939    1878.4568       21.977       21.977       21.977            0            0            0    1419.2149     2579.322    1636.8336     736.3236   -1357.2439    134.82923 
   22500    579.06869   -247.15059    2365.5676       21.977       21.977       21.977            0            0            0    2287.6003    2547.0827    2262.0197    935.63465    677.02873    45.199794 
   23000    586.24181   -247.83029    1994.9638       21.977       21.977       21.977            0            0            0    1458.0724    2223.4898    2303.3292    137.73431   -462.60556   -694.68213 
   23500    600.69417    -247.2558    2265.1657       21.977       21.977       21.977            0            0            0    2850.5062     1677.448    2267.5429    162.90861   -343.00028    722.46655 
   24000    579.02768   -247.63565    1869.2374       21.977       21.977       21.977            0            0            0    2005.2656    1183.2996     2419.147   -944.00079    227.69104    1039.7448 
   24500    651.09342   -249.15085    1760.2296       21.977       21.977       21.977            0            0            0    1279.9902    2171.6991    1828.9994    256.33619   -479.46461    10.542513 
   25000    620.30696   -247.74219    2230.4391       21.977       21.977       21.977            0            0            0    2880.3034    1409.7877    2401.2262    731.19851    319.20306   -87.037442 
   25500    615.29663   -248.01492    2224.6591       21.977       21.977       21.977            0            0            0    1988.0734    2447.7507    2238.1533    385.44284    127.51366    490.41918 
   26000    611.24967    -248.8605    1682.0758       21.977       21.977       21.977            0            0            0    1593.8673    1403.5534    2048.8066     315.7681   -688.55118     81.80208 
   26500     520.6169   -247.49258    1853.1494       21.977       21.977       21.977            0            0            0    2041.2258    2305.4102    1212.8122   -450.83079   -138.00817   -249.02935 
   27000    585.69092   -248.27144    2010.4365       21.977       21.977       21.977            0            0            0    2961.9305    1298.5991    1770.7798   -367.76149   -43.688352    140.51076 
   27500    589.83657   -249.67977    1437.7408       21.977       21.977       21.977            0            0            0    1818.1507     913.0738    1581.9978    366.07926   -361.35829    21.041497 
   28000     623.3427   -249.58675    1728.0186       21.977       21.977       21.977            0            0            0    782.14586    2135.1252    2266.7849    30.595469    744.70479   -74.007226 
   28500     602.0285   -247.57619     2090.844       21.977       21.977       21.977            0            0            0    1192.5895    2619.2184    2460.7241   -513.46436    496.04977    1022.9028 
   29000    638.03577   -249.85061    1408.9562       21.977       21.977       21.977            0            0            0    2195.2226    966.94481    1064.7013    552.41177    555.95873    809.58854 
   29500    655.16233   -248.79604    1920.5538       21.977       21.977       21.977            0            0            0    2258.8563    1090.1918    2412.6131   -559.06306    378.95431   -300.16089 
   30000    572.31458    -249.7755    1705.9655       21.977       21.977       21.977            0            0            0    1732.0055    2650.1266    735.76435     700.4959   -276.44606   -468.99923 
   30500    580.05012   -248.89766    1732.7281       21.977       21.977       21.977            0            0            0    2079.2712    2215.3461    903.56687    245.28116    -86.33375   -122.11154 
   31000    576.15862   -249.22442    1560.2273       21.977       21.977       21.977            0            0            0    1276.8978    1512.1609    1891.6234    336.18398    -8.003424   -491.24411 
   31500     615.4596   -250.32417    1413.9206       21.977       21.977       21.977            0            0            0     1662.761    565.27528    2013.7254   -927.28386   -252.45252   -202.60262 
   32000    624.14433   -248.31452    2049.6389       21.977       21.977       21.977            0            0            0    1431.8791    2412.9247    2304.1129     210.0401   -759.18769   -547.89065 
   32500    598.92331   -247.90292    2064.4674       21.977       21.977       21.977            0            0            0    3165.5737    1653.9526    1373.8759    252.39565   -243.56222   -310.55916 
   33000    602.43483   -246.96729    2613.6146       21.977       21.977       21.977            0            0            0    2598.7826    2255.0202     2987.041   -686.86682   -537.88046     858.5831 
   33500     594.4603   -248.90097    1513.0915       21.977       21.977       21.977            0            0            0    2866.9041    1199.7747    472.59567   -60.573324   -86.678523    630.91342 
   34000     621.0148   -249.27311     1560.764       21.977       21.977       21.977            0            0            0    2545.9636    473.99215    1662.3364    30.180299    213.06199   -385.15832 
   34500    579.50651   -247.14226    2210.6592       21.977       21.977       21.977            0            0            0    2146.8364    1489.7181    2995.4231    64.070554     32.22715    -87.30729 
   35000    549.86408    -248.2488    1847.7719       21.977       21.977       21.977            0            0            0    1236.4305    2304.4304    2002.4548    -91.02901    754.72546      432.674 
   35500    617.43308   -249.70573    1615.8704       21.977       21.977       21.977            0            0            0    1514.7665    1669.8172    1663.0275    372.46114   -29.225109   -368.27961 
   36000    617.40976   -249.82806    1282.2389       21.977       21.977       21.977            0            0            0    1200.2955    1761.4798    884.94144    902.00202   -431.82812   -370.04037 
   36500    602.79224   -248.41676    1868.2013       21.977       21.977       21.977            0            0            0    2349.8756    2043.5517    1211.1766    215.18176    104.43827    237.95336 
   37000    599.15061   -247.68403    2020.2211       21.977       21.977       21.977            0            0            0    1522.6726    2207.7119    2330.2788    632.99148   -45.153565     522.4357 
   37500    611.86029   -247.92033    2413.1527       21.977       21.977       21.977            0            0            0    2793.7135    2599.6052    1846.1395   -426.28052    103.74256   -392.80385 
   38000    603.74035   -248.32836    2112.9238       21.977       21.977       21.977            0            0            0    2010.5933    2519.7492    1808.4289    123.38796    520.89102    390.08162 
   38500    655.65919   -245.78185    2943.8826       21.977       21.977       21.977            0            0            0    3108.5674    3109.7057    2613.3748    573.80879   -875.53532    1412.7189 
   39000     603.4406   -249.27726    2021.1295       21.977       21.977       21.977            0            0            0    1191.8722    2728.7562    2142.7602   -395.79722    -742.8282     75.22684 
   39500    645.11925   -248.98149    1932.8608       21.977       21.977       21.977            0            0            0    2421.3956    2105.6051    1271.5816    22.489461   -560.37337   -749.92085 
   40000    601.36583   -248.55301    2022.9895       21.977       21.977       21.977            0            0            0    2509.8866    2539.7485    1019.3332   -546.53696    -367.4834    87.296865 
   40500    620.29274   -247.91626    2070.0416       21.977       21.977       21.977            0            0            0     2775.963    1708.8468    1725.3151    202.49944   -243.06932    839.07921 
   41000    589.98677   -248.53828    1717.7309       21.977       21.977       21.977            0            0            0     1554.676    2225.9306    1372.5862    418.06066     281.8709   -507.56139 
   41500    557.44906   -249.07222    1735.5439       21.977       21.977       21.977            0            0            0    2096.6261    650.92511    2459.0805    801.54902   -309.18897   -656.06471 
   42000    614.14029   -248.71273    1931.5914       21.977       21.977       21.977            0            0            0    2043.5139    2210.4922    1540.7682   -126.26514   -350.43753    226.49147 
   42500    580.80862   -248.08393    2061.6862       21.977       21.977       21.977            0            0            0    977.10045    1745.9358    3462.0222   -721.41275   -513.72095    424.66189 
   43000    586.18535    -247.7334    1819.8002       21.977       21.977       21.977            0            0            0    2533.3078    1194.2149    1731.8779   -46.755278    348.68792    410.62649 
   43500    630.06203   -246.98281    2367.5639       21.977       21.977       21.977            0            0            0    2948.7503    1447.4736    2706.4678   -599.61604    539.93477   -563.53558 
   44000    657.83027   -248.73304    1989.8991       21.977       21.977       21.977            0            0            0    1658.1557    2376.6797     1934.862    181.80539    1044.0686    304.89988 
   44500    579.68823   -249.92893    1444.0918       21.977       21.977       21.977            0            0            0    1221.7139    1058.1931    2052.3685   -378.27068    59.677322    916.44522 
   45000    584.74147   -248.57527    1858.7328       21.977       21.977       21.977            0            0            0    1619.3379    2272.4545    1684.4061    20.518663   -424.80038    308.70188 
   45500    555.89937   -246.42352    2385.5256       21.977       21.977       21.977            0            0            0    1279.8469     3670.085     2206.645   -301.33482    289.38407   -709.26955 
   46000    629.23508   -246.32504    2848.8026       21.977       21.977       21.977            0            0            0      3764.11     3091.457    1690.8406    159.92645   -321.55437    165.86725 
   46500    586.62529   -247.02785    2308.9094       21.977       21.977       21.977            0            0            0    2497.9751     1698.234    2730.5191    112.58638   -250.25383   -306.89143 
   47000    608.86672   -249.15757    1812.6685       21.977       21.977       21.977            0            0            0    530.38933    2610.7761    2296.8402    94.797574    211.95096   -320.35813 
   47500    619.12415   -249.05614    1932.2896       21.977       21.977       21.977            0            0            0    1503.4609    2082.3389     2211.069    58.664741   -261.53447   -408.51066 
   48000    533.57602   -247.23908    2194.2099       21.977       21.977       21.977            0            0            0    1879.2297    2597.1625    2106.2375    160.71967   -57.789693   -167.82933 
   48500    581.10806   -247.16601     2195.886       21.977       21.977       21.977            0            0            0    2277.1341    2225.9517    2084.5722    112.66644   -343.52653   -59.282769 
   49000    667.18348   -248.92717    1942.2621       21.977       21.977       21.977            0            0            0    2492.3701    2162.4596    1171.9566    16.264084   -190.55207       141.35 
   49500    526.16724   -248.23242    1458.4657       21.977       21.977       21.977            0            0            0    1364.0205    1740.7015    1270.6751    119.81426   -925.03869    227.62197 
   50000    593.70425   -248.91978    1696.4655       21.977       21.977       21.977            0            0            0    1556.7889    875.43954    2657.1681   -20.788315   -257.12884   -242.52692 
   50500    571.48276   -247.39876    2142.5303       21.977       21.977       21.977            0            0            0    1252.1548    2572.0272    2603.4089   -356.06502   -262.22112   -100.49671 
   51000    654.24988   -247.33409    2670.6964       21.977       21.977       21.977            0            0            0    2832.0704    2672.3241    2507.6946     1089.067    1097.2423    668.63957 
   51500     593.4806   -249.91278    1321.2279       21.977       21.977       21.977            0            0            0    1146.9318    1751.2118      1065.54   -338.75942   -1071.6222    40.257045 
   52000    656.96186   -246.77666    2754.3166       21.977       21.977       21.977            0            0            0    2536.5854    2433.4408    3292.9238    487.70498    215.23233   -222.67698 
   52500    575.00532   -248.39322    1895.2567       21.977       21.977       21.977            0            0            0    1897.9195    1513.5593    2274.2912   -469.43317   -559.46308    330.03604 
   53000    635.95819   -248.83005    2173.8648       21.977       21.977       21.977            0            0            0    1905.7488    2864.5893    1751.2562   -348.45507    90.219888    367.91003 
   53500    574.73019   -247.56349     2137.776       21.977       21.977       21.977            0            0            0    1504.7077    2633.6275    2274.9928   -322.71904    291.74638   -155.74676 
   54000    558.40733   -249.39475    1595.6966       21.977       21.977       21.977            0            0            0    667.25419    1268.2129    2851.6227    -344.0963    371.57602   -550.10724 
   54500     592.5802   -247.94266    2027.7304       21.977       21.977       21.977            0            0            0    2177.2733    1691.9251    2213.9928    221.65654   -559.81544    698.65931 
   55000    679.62876   -249.57487     1793.955       21.977       21.977       21.977            0            0            0    2084.7418    1633.5065    1663.6167    271.02765   -401.08092   -96.208812 
   55500    688.59127     -249.026     2055.402       21.977       21.977       21.977            0            0            0    1711.3491    2006.9195    2447.9373    373.15457    23.961029     455.1059 
   56000    619.33685   -248.48947    2078.9806       21.977       21.977       21.977            0            0            0    2201.5138    2352.0023    1683.4257    183.26191    218.05483    632.94199 
   56500    621.49132    -247.8921    2155.1779       21.977       21.977       21.977            0            0            0    2713.1994     1696.502    2055.8322   -106.18465    227.07369   -816.75489 
   57000    569.07318   -248.35239    1881.1994       21.977       21.977       21.977            0            0            0    1112.1305     2502.444    2029.0237   -56.555411    -421.0949   -216.28124 
   57500    587.64707   -248.71059    1841.7958       21.977       21.977       21.977            0            0            0    2125.2644    1473.2512    1926.8719    152.52607   -170.10595   -49.727905 
   58000    593.36467   -246.06546    2622.4604       21.977       21.977       21.977            0            0            0    2138.4835    3704.2273    2024.6705    534.01159    223.74667   -965.71306 
   58500    605.75299   -247.25496    2561.3379       21.977       21.977       21.977            0            0            0    3113.0898    2074.3039      2496.62   -690.41674   -113.10599     177.1656 
   59000    611.04846   -249.54823    1540.6612       21.977       21.977       21.977            0            0            0    1370.5334    2178.0803    1073.3697   -235.88129   -265.49334   -560.96096 
   59500    583.43549   -247.39149    2442.0264       21.977       21.977       21.977            0            0            0    1620.3034    3409.9482    2295.8278   -461.64344   -673.26737     154.2073 
   60000     611.4053    -249.6835    1627.1074       21.977       21.977       21.977            0            0            0    964.26924    1894.3797    2022.6731   -332.40149   -561.54929   -688.91575 
   60500    609.96391   -248.38848    1885.0586       21.977       21.977       21.977            0            0            0    2276.3102    1377.6648    2001.2009   -319.20867     141.9726   -665.27155 
   61000     593.0725   -248.38919    1994.0635       21.977       21.977       21.977            0            0            0    1957.3557    2302.2862    1722.5486   -331.99979    62.836355    99.334611 
   61500    540.20664   -249.45216    1529.4173       21.977       21.977       21.977            0            0            0    2149.5077     1350.675    1088.0692    24.883094    919.96403   -193.56367 
   62000    636.83146   -247.63728    2458.7389       21.977       21.977       21.977            0            0            0    1984.9087    2412.2974    2979.0107    -968.3543    120.75845   -369.52528 
   62500    634.30724    -247.4711    2329.0844       21.977       21.977       21.977            0            0            0    1541.1622    2895.1583    2550.9326     865.9374    -140.3477    746.39643 
   63000    621.58903   -248.37672    2142.5194       21.977       21.977       21.977            0            0            0    2510.6757    2046.6584     1870.224    -492.3498    317.07547    -34.86933 
   63500    597.79695   -248.82809    1885.6302       21.977       21.977       21.977            0            0            0    2079.2622    1872.1494     1705.479    126.30123   -673.06943   -414.22858 
   64000     578.3865   -248.75713    1620.3393       21.977       21.977       21.977            0            0            0    1287.7325    1114.2619    2459.0235   -298.74893   -24.667585    -194.1749 
   64500    612.71926   -248.67336    1940.3504       21.977       21.977       21.977            0            0            0    1368.7464    2130.8342    2321.4707    448.93127   -632.26976   -563.66614 
   65000     637.1514   -249.20391     1878.879       21.977       21.977       21.977            0            0            0    2309.5668     1786.902    1540.1682   -431.17578     179.3543   -731.85885 
   65500    604.91999   -248.07168    2197.3978       21.977       21.977       21.977            0            0            0     1944.702    2632.1183    2015.3732   -28.645348   -199.46151   -518.19874 
   66000    604.36913    -248.7182    1887.8296       21.977       21.977       21.977            0            0            0    2839.4938    1957.8585    866.13658    260.49995   -57.713647   -549.46153 
   66500     591.9206   -248.57482    1761.8511       21.977       21.977       21.977            0            0            0    1426.8053     2127.732    1731.0161   -235.94637    606.72894   -258.07896 
   67000     586.9809   -249.99153    1402.2541       21.977       21.977       21.977            0            0            0    1523.3614    1494.7182    1188.6828   -329.94067    -469.1337    207.69447 
   67500    571.51629   -247.50614    1977.3879       21.977       21.977       21.977            0            0            0    2233.5885    2909.9178    788.65739   -259.97808   -623.49945   -27.163949 
   68000    645.53285   -247.89649    2512.2357       21.977       21.977       21.977            0            0            0    1827.5192    2542.0712    3167.1168    91.090549   -680.97564    69.277607 
   68500     585.6822   -248.83369    1675.6206       21.977       21.977       21.977            0            0            0    1399.1645    2529.3287    1098.3685     604.2969    266.52443   -213.64849 
   69000    584.67854   -247.86614    2143.5333       21.977       21.977       21.977            0            0            0    1666.8764    2305.2259    2458.4978    972.94698    330.36756    369.76346 
   69500    603.57012   -248.93616    1830.5092       21.977       21.977       21.977            0            0            0    1979.1392    1763.2773    1749.1112   -898.81263    390.71634    -165.2594 
   70000    637.00082    -248.1944     2093.241       21.977       21.977       21.977            0            0            0    2723.6949    883.75838    2672.2696   -363.77532   -427.38453   -343.60885 
   70500    585.61411   -247.50389    2196.5735       21.977       21.977       21.977            0            0            0    1457.2985    2641.4216    2491.0003    474.05069    23.257833    383.29513 
   71000    591.99821   -248.78891    1856.8141       21.977       21.977       21.977            0            0            0    1872.2589    2128.6527    1569.5306   -475.28173   -874.55557   -909.22247 
   71500    587.26165   -248.20216    2080.3896       21.977       21.977       21.977            0            0            0    2829.1916    1573.6199    1838.3571   -791.49416   -85.585947    470.19082 
   72000    591.93442   -248.80788    1358.9127       21.977       21.977       21.977            0            0            0    1479.3902    885.34901    1711.9988   -673.72104    371.87255   -1255.1544 
   72500    598.66336      -247.66    2214.3058       21.977       21.977       21.977            0            0            0    2245.8039    1588.3535      2808.76   -683.69375    849.47038   -292.55883 
   73000    614.53437   -247.71068    2069.9396       21.977       21.977       21.977            0            0            0    2615.5205    2602.5515    991.74665   -156.12449    234.12588   -743.36457 
   73500    602.33314   -246.49628    2718.8735       21.977       21.977       21.977            0            0            0    3366.6136    2054.4976    2735.5092   -520.40345   -785.33447   -22.847903 
   74000     624.6958   -246.95285    2467.6136       21.977       21.977       21.977            0            0            0    2611.2317    2169.3894    2622.2198     336.1821    257.35255   -1055.8623 
   74500    591.95127   -248.18976    1851.1225       21.977       21.977       21.977            0            0            0     1943.937    1347.4974    2261.9331    160.42742    393.90761    102.64749 
   75000    610.54086   -247.27071     2449.765       21.977       21.977       21.977            0            0            0    2305.4048    2633.2292    2410.6611    141.45353    163.65572    35.526594 
   75500    547.24179   -248.97601    1745.1072       21.977       21.977       21.977            0            0            0    1943.3394    1200.2742    2091.7081    415.62841    1124.7858   -856.96353 
   76000    615.24666   -250.38613    1324.4916       21.977       21.977       21.977            0            0            0    1399.2374    1622.7041    951.53319   -183.31446      1044.49   -588.71786 
   76500    597.08344   -249.11214    1569.3558       21.977       21.977       21.977            0            0            0    1782.1516    1828.1408     1097.775    444.75556   -629.05197    637.04995 
   77000    594.01661   -247.93548    2111.3507       21.977       21.977       21.977            0            0            0      2307.44    2183.8181    1842.7939    130.46592   -921.35257   -148.92591 
   77500    543.89793   -249.44766    1249.0062       21.977       21.977       21.977            0            0            0     606.2272    923.87887    2216.9125    939.03104     -263.229   -42.978989 
   78000    630.19048   -246.77262    2527.8838       21.977       21.977       21.977            0            0            0    3427.7923     2462.622    1693.2369    -904.2334   -352.32853   -926.02374 
   78500    584.18392   -247.28575    2376.0021       21.977       21.977       21.977            0            0            0    2150.8008    2362.9085     2614.297     43.58551    158.11815   -675.95721 
   79000    593.58294   -247.97453    2363.2659       21.977       21.977       21.977            0            0            0    2946.3974    2345.5468    1797.8534   -772.95202     265.2023   -63.508236 
   79500    604.57423   -247.43133    2369.0373       21.977       21.977       21.977            0            0            0    2430.7082    2774.6159    1901.7878   -338.44318    143.26475   -57.453572 
   80000    628.12761   -249.20754    1970.9393       21.977       21.977       21.977            0            0            0    1458.3303    2572.9947    1881.4929     -70.3796    177.09623   -802.52836 
   80500    623.96862   -247.94319    2042.8908       21.977       21.977       21.977            0            0            0    2293.0591    2568.5027    1267.1107   -613.48313   -81.289608    9.5007103 
   81000    645.11265   -248.94969    2158.9586       21.977       21.977       21.977            0            0            0    2838.2292    2188.2417    1450.4049   -1006.3441    653.89792   -228.55173 
   81500    612.21825   -249.19215    1918.0705       21.977       21.977       21.977            0            0            0    1397.9493    2530.3276    1825.9347     -719.998    488.13954   -12.199172 
   82000    596.26529   -247.53139    2144.4463       21.977       21.977       21.977            0            0            0    2279.9618    2659.7142    1493.6628    180.43281    595.85514   -223.27073 
   82500    565.99831   -248.41216    1724.6314       21.977       21.977       21.977            0            0            0    1478.3083    1779.3572    1916.2287    244.05575    340.35699   -1034.9146 
   83000     620.2888   -247.48344    2449.6567       21.977       21.977       21.977            0            0            0    2454.5336    1855.9301    3038.5062    538.21276   -353.97394    366.58094 
   83500    588.91397   -249.19872    1884.4488       21.977       21.977       21.977            0            0            0    2832.6363    535.52963    2285.1804     496.4978   -373.58349   -38.606391 
   84000    533.22578   -247.80844     1825.049       21.977       21.977       21.977            0            0            0    1177.9272    2156.8507    2140.3691    457.97903   -457.75787    152.64952 
   84500    628.59656   -248.68482    1877.9968       21.977       21.977       21.977            0            0            0    2490.9719     1955.872    1187.1466    484.98413   -1034.0747   -62.223832 
   85000    668.14884   -249.35531    2096.1944       21.977       21.977       21.977            0            0            0      2079.37    2002.4443    2206.7688    18.231039    69.072566   -503.78213 
   85500    645.06186    -247.5425    2606.1784       21.977       21.977       21.977            0            0            0    2806.3841    2857.5784    2154.5726    674.45304    175.70955   -673.98356 
   86000    554.72909   -247.70569     2032.545       21.977       21.977       21.977            0            0            0    2786.9018    791.21398    2519.5192   -715.02089   -655.19835    -284.4196 
   86500    583.21961   -248.72939    1907.8817       21.977       21.977       21.977            0            0            0    1993.3455    1554.0615    2176.2383    376.45662   -670.66495   -395.57844 
   87000    649.24038   -246.60808    2536.5663       21.977       21.977       21.977            0            0            0    3897.6292    2450.3807     1261.689   -1281.4293    603.19369     321.8115 
   87500    605.22829   -247.76597    2114.8325       21.977       21.977       21.977            0            0            0    2091.5072    2153.1798    2099.8105   -775.62844    247.48513   -149.22058 
   88000     614.0058   -246.74119     2544.757       21.977       21.977       21.977            0            0            0    2412.1135    2771.2238    2450.9336   -443.41898   -59.076452    173.56276 
   88500    556.58374   -247.90075     2112.371       21.977       21.977       21.977            0            0            0    2060.2283      1437.88    2839.0047   -194.92242    851.76745    218.92672 
   89000    595.67122   -248.12686    2085.7782       21.977       21.977       21.977            0            0            0    2383.5979    1623.9202    2249.8166   -135.60035   -142.12196    432.88301 
   89500    589.23973   -247.25259    2208.1432       21.977       21.977       21.977            0            0            0    2920.1389    2037.5559    1666.7349    178.00804    98.462901   -108.09331 
   90000    617.17127   -247.51081    2239.2127       21.977       21.977       21.977            0            0            0    2220.9426    1747.2191    2749.4764    510.98377   -628.74436    164.08883 
   90500    668.16654   -247.67188    2547.2788       21.977       21.977       21.977            0            0            0    3419.9103     2316.905    1905.0212   -626.73056     25.09957    148.67019 
   91000    572.65437   -247.78828     2109.516       21.977       21.977       21.977            0            0            0    2194.0371    1905.4898     2229.021   -369.34884   -280.31791   -126.88801 
   91500    544.14808   -249.10821    1417.0661       21.977       21.977       21.977            0            0            0    1765.3182    1814.8946    670.98553   -127.98253     399.8464    229.59493 
   92000    610.05838   -249.89357    1369.4048       21.977       21.977       21.977            0            0            0    603.69065    1424.3938    2080.1299   -954.82968    75.070199    320.28587 
   92500    618.58912   -247.42181    2617.3414       21.977       21.977       21.977            0            0            0    2665.1764    2703.2823    2483.5656    77.800779    73.347997   -498.36873 
   93000    621.36132   -247.95557    2438.5571       21.977       21.977       21.977            0            0            0    3376.2526     2028.847    1910.5719    48.188716   -1707.6312    335.56794 
   93500    584.32214   -248.13315    2191.8267       21.977       21.977       21.977            0            0            0    2339.0742    2665.6983    1570.7076   -264.54284   -184.26133    106.96303 
   94000     632.1207   -248.68832    2015.9948       21.977       21.977       21.977            0            0            0    1937.9426    1315.3519    2794.6899   -114.70314    -301.9906    -454.0378 
   94500    552.97048   -248.50762    1969.1644       21.977       21.977       21.977            0            0            0    2406.2833    2042.2426    1458.9673    597.54145    75.137072    29.242476 
   95000    594.87116   -246.96678    2433.5289       21.977       21.977       21.977            0            0            0    3013.0431    2430.6223    1856.9214     441.8015    686.05368   -144.95056 
   95500    645.54947   -248.80285    2262.6204       21.977       21.977       21.977            0            0            0    3102.4779     1501.482    2183.9014   -1059.6023   -472.86661   -364.75999 
   96000    642.33493   -247.35236    2314.8222       21.977       21.977       21.977            0            0            0    2620.0506    2033.4653    2290.9508   -239.52348    196.27955    320.61564 
   96500    620.09745   -248.47206    2070.8068       21.977       21.977       21.977            0            0            0    1932.4245    2690.3165    1589.6793   -375.59445   -942.96786    1245.7886 
   97000    601.69363   -247.87783    2241.1961       21.977       21.977       21.977            0            0            0    2046.3074    2907.5796    1769.7015   -241.27871    21.330407    227.27065 
   97500    531.92275   -247.36452    1934.3077       21.977       21.977       21.977            0            0            0    1611.1357    1994.1169    2197.6705   -253.93745   -415.07007   -586.02607 
   98000    599.96592   -248.78623    1678.5025       21.977       21.977       21.977            0            0            0    668.11986    1637.8723    2729.5154    95.068265    368.26509    397.76362 
   98500    565.76868   -246.95731    2237.8971       21.977       21.977       21.977            0            0            0    2291.3851    3096.7417    1325.5646    720.42365    165.26079    690.41347 
   99000    580.67097   -247.58351     2039.385       21.977       21.977       21.977            0            0            0    2001.9772    1636.9298    2479.2479   -410.60336   -54.725624    34.178921 
   99500    647.64667   -248.68431    1918.9673       21.977       21.977       21.977            0            0            0    1582.4728    2086.5402     2087.889   -373.58577    123.17783   -149.04075 
  100000     572.1064   -246.29076    2617.1658       21.977       21.977       21.977            0            0            0    2978.6481    2240.9697    2631.8796   -946.56342   -330.66537    93.510233 
  100500    600.25432   -248.06433    1911.1427       21.977       21.977       21.977            0            0            0    1720.1159     2577.728     1435.584   -261.42547    620.71587    402.68126 
  101000    529.48298   -247.36014    2180.5512       21.977       21.977       21.977            0            0            0    2372.7725    2325.9173    1842.9638   -17.368596   -1263.1043   -110.57739 
  101500     610.5753   -248.73243     2017.162       21.977       21.977       21.977            0            0            0     2020.201    1936.7698    2094.5151    131.32975    73.062727    393.69222 
  102000    625.49169   -249.38415    1575.1016       21.977       21.977       21.977            0            0            0    1722.5721    1303.6003    1699.1323    28.193687   -372.37473   0.48694639 
  102500    559.36729   -246.53297    2505.4681       21.977       21.977       21.977            0            0            0    956.15854    3169.7555    3390.4901    214.70587    296.35924    450.83422 
  103000    581.25179   -246.74752    2709.0375       21.977       21.977       21.977            0            0            0    2359.6113    3830.7632    1936.7381   -364.69593    394.13977    -244.7002 
  103500    599.04328   -249.53284    1677.6744       21.977       21.977       21.977            0            0            0    1124.7602     2739.723    1168.5399    566.66657   -150.76249   -318.60263 
  104000    599.99555   -248.81178    1973.5268       21.977       21.977       21.977            0            0            0    2151.7984    1610.7198    2158.0621    622.42619     199.0592    -6.312571 
  104500    592.77111   -248.48602     2116.372       21.977       21.977       21.977            0            0            0     2620.662    2202.2318    1526.2222   -198.03076    810.48312   -20.186025 
  105000    529.44599   -248.35901    1601.9179       21.977       21.977       21.977            0            0            0    2251.2398      575.086     1979.428   -424.42991    462.26891    205.49041 
  105500    588.77474    -248.8222    1623.3622       21.977       21.977       21.977            0            0            0    2044.9823    1563.2674    1261.8369    505.65586   -756.97737    362.61835 
  106000     598.1279   -247.69032    2271.1224       21.977       21.977       21.977            0            0            0    2714.6696    1352.9652    2745.7326    477.63325   -335.98149    374.06574 
  106500    622.41423   -250.02146    1756.5559       21.977       21.977       21.977            0            0            0     2546.968    1547.1978    1175.5019    746.39061    486.83104   -152.42064 
  107000    555.46619    -248.1364       1842.7       21.977       21.977       21.977            0            0            0    1901.6383    1806.6755    1819.7861    467.13495   -305.10052    788.74288 
  107500    552.88731   -247.99245     2052.702       21.977       21.977       21.977            0            0            0     1534.703    2244.0173    2379.3858    360.08175    467.10359    183.80443 
  108000    677.12077   -247.40032     2485.452       21.977       21.977       21.977            0            0            0    2689.5153    3220.3583    1546.4825    901.02778    811.07964   -446.18105 
  108500    551.92115   -247.90291    1836.5048       21.977       21.977       21.977            0            0            0    1889.2702    1377.3618    2242.8824   -15.365545   -238.03767   -146.36905 
  109000    595.53424   -247.83482    2425.7805       21.977       21.977       21.977            0            0            0    1443.9757    3390.8878     2442.478    462.56309   -512.62676    675.14664 
  109500     564.3728   -248.80218    1652.4603       21.977       21.977       21.977            0            0            0    1829.0819    1680.3981    1447.9008    533.18082   -447.39942    283.52777 
  110000    596.98207   -249.33053    1745.2719       21.977       21.977       21.977            0            0            0    1338.1793    1879.7628    2017.8737    149.48527   -629.10482    -28.14274 
  110500    612.76124   -247.11037     2373.054       21.977       21.977       21.977            0            0            0    2775.8369    593.13558    3750.1894      435.949    173.97245    203.25006 
  111000    593.43455   -248.80516    1801.9913       21.977       21.977       21.977            0            0            0      1511.87    1977.7801    1916.3239   -268.95289   -401.69994   -175.14148 
  111500    599.94731    -247.8526    1964.6916       21.977       21.977       21.977            0            0            0    2403.5341    1324.9843    2165.5566   -126.68292    491.78927    91.180853 
  112000    573.77368   -248.73699    1973.2078       21.977       21.977       21.977            0            0            0    2616.9727    1373.8799    1928.7709   -431.12936   -1187.2453    -522.6718 
  112500    580.91312   -249.27993    1710.1904       21.977       21.977       21.977            0            0            0    1490.7377    1310.9702    2328.8634    150.67166    412.96532   -588.64197 
  113000    593.26404   -248.52254    1981.0098       21.977       21.977       21.977            0            0            0    2067.6481    2864.5908    1010.7904    80.690525    280.18627   -383.11909 
  113500    609.49693   -249.43462    1718.6164       21.977       21.977       21.977            0            0            0     1025.738    1604.2933    2525.8177   -15.540403    117.66359   -174.70978 
  114000    591.59687   -249.22641     1793.155       21.977       21.977       21.977            0            0            0      890.436    3051.7693    1437.2599     514.2291    246.60414    118.46735 
  114500     618.6255   -249.59172    1580.7854       21.977       21.977       21.977            0            0            0    1210.9219    1431.7202    2099.7143   -566.11523    674.52358    112.34561 
  115000    618.27733   -248.48273    2281.7714       21.977       21.977       21.977            0            0            0    2825.8001    1743.7078    2275.8062   -1066.7772    609.12524   -427.52321 
  115500    600.89679   -248.84641    2175.9125       21.977       21.977       21.977            0            0            0    1579.8772    1372.5345    3575.3257    243.09088   0.67554446   -858.37262 
  116000    573.90957    -247.6209    2109.0734       21.977       21.977       21.977            0            0            0    2295.7433     1671.058     2360.419     431.4034     107.2091   -228.93481 
  116500    608.23946   -247.03984    2329.9146       21.977       21.977       21.977            0            0            0    1858.5417    2980.6799     2150.522   -374.30551   -427.87113   -219.37466 
  117000    598.34635   -249.09794    1739.6355       21.977       21.977       21.977            0            0            0     2029.663    2285.0046    904.23896   -108.55481    350.74136   -591.61781 
  117500    583.06318   -248.76321     2034.589       21.977       21.977       21.977            0            0            0    1369.1327    1838.5382    2896.0962    61.330065    365.41649   -531.67951 
  118000    616.62615   -247.12859    2233.5758       21.977       21.977       21.977            0            0            0    1561.4081    2654.0078    2485.3114   -1262.0058    113.90055    524.53169 
  118500    614.31366   -248.66612    1972.8079       21.977       21.977       21.977            0            0            0    1444.6718    2473.2275    2000.5243    224.34863   -174.88377   -40.552076 
  119000    598.29611   -248.37743    1774.6821       21.977       21.977       21.977            0            0            0    759.43617    2215.4785    2349.1317    -915.9417    12.296499    345.58146 
  119500    668.23249   -247.79212    2347.3875       21.977       21.977       21.977            0            0            0    1493.7945    2941.7444    2606.6237   -539.88178   -667.92383    524.53631 
  120000    603.14733   -249.08442    1676.8553       21.977       21.977       21.977            0            0            0    1031.4724    2638.6281    1360.4654   -623.59995   -128.67055    408.08887 
  120500    603.55416    -249.4281    1640.7282       21.977       21.977       21.977            0            0            0    2212.6106    1951.9942    757.57981    222.23838     48.14244    295.58932 
  121000    599.06884   -247.16398    2391.6872       21.977       21.977       21.977            0            0            0    3351.4051    1584.1696     2239.487   -233.60292    425.40052    669.71175 
  121500    611.35171   -248.85718    1723.6512       21.977       21.977       21.977            0            0            0    2009.8251     1403.416    1757.7126   -180.90998   -189.37561    337.24483 
  122000    697.14528   -247.53488    2663.6636       21.977       21.977       21.977            0            0            0      2735.21    2337.0211    2918.7598    811.43387   -400.72377   -471.22561 
  122500    610.59897   -247.74524    2231.0664       21.977       21.977       21.977            0            0            0     3196.227    1776.5756    1720.3964   -603.40757   -229.06516     171.5355 
  123000    628.94498   -249.99408    1398.4233       21.977       21.977       21.977            0            0            0    1112.9394      1267.08    1815.2504   -172.42132    261.72992    26.175608 
  123500    634.47852   -246.98454    2764.9435       21.977       21.977       21.977            0            0            0    2592.9218    3594.4332    2107.4755    29.270314   -111.76044     673.2696 
  124000    624.23781   -247.36125    2549.5867       21.977       21.977       21.977            0            0            0    1463.6953     3678.263    2506.8018    129.57337    549.54215    829.01112 
  124500    561.26829    -248.6417    1718.6459       21.977       21.977       21.977            0            0            0    1387.8409    2055.1302    1712.9667   -223.15142    144.21353    613.84674 
  125000    578.62543    -248.1491    1981.4861       21.977       21.977       21.977            0            0            0    1074.7035    2987.0485    1882.7062   -377.85056   -134.82615    -439.9336 
  125500    643.68696   -246.55229    2678.9973       21.977       21.977       21.977            0            0            0    1909.8848    2711.9837    3415.1235   -502.97268    -25.43597    511.05691 
  126000    610.37702   -248.39318    2050.1554       21.977       21.977       21.977            0            0            0    1821.0767    2433.7678    1895.6217    19.092287    296.20578    -404.7103 
  126500    587.74458   -248.88329    1787.9555       21.977       21.977       21.977            0            0            0    1911.7942    2281.2256    1170.8467    107.59651   -624.11865   -646.12922 
  127000     578.8709   -248.60166    1927.1362       21.977       21.977       21.977            0            0            0    1987.4241    1631.9602    2162.0243   -302.70116    330.28303    540.97891 
  127500    586.47455   -247.79764    2011.2603       21.977       21.977       21.977            0            0            0    1392.2606    2128.4707    2513.0494   -91.048903    341.58032    253.15483 
  128000    570.16448   -248.01279    1888.5215       21.977       21.977       21.977            0            0            0    1630.1486    2496.0529    1539.3631    133.48949    -344.2577     132.8854 
  128500    668.43738   -248.23216    2238.1547       21.977       21.977       21.977            0            0            0    2442.0686    1644.7221    2627.6735   -587.92071    1131.5579   -159.46172 
  129000    604.70847   -249.03389    1792.9279       21.977       21.977       21.977            0            0            0    1091.2905    1597.3414    2690.1517    -455.5998    663.48507    624.90818 
  129500    577.98672   -248.86913     1854.105       21.977       21.977       21.977            0            0            0    2608.7211    1382.5913    1571.0025   -56.159609   -361.48194    896.95866 
  130000    564.27148   -248.33058    1573.2487       21.977       21.977       21.977            0            0            0    2233.4027    1548.2697    938.07368   -106.65257    401.23631   -136.83309 
  130500    617.94396   -248.22953    1936.6085       21.977       21.977       21.977            0            0            0    1576.4742    2107.4885    2125.8628   -626.14412    114.40856    277.56644 
  131000    602.91864   -248.51184    1798.3295       21.977       21.977       21.977            0            0            0    2086.8644    1867.1487    1440.9753    209.82139    -244.7626   -175.33966 
  131500    584.22753   -248.76641    1675.8327       21.977       21.977       21.977            0            0            0    1661.2977    1280.2386    2085.9618    111.33912    920.70073    -108.3327 
  132000    533.29733    -248.5332    1686.5684       21.977       21.977       21.977            0            0            0    2418.2509    1755.2631    886.19104    533.46229   -39.405608    610.11479 
  132500    680.50898   -246.45331    2952.5404       21.977       21.977       21.977            0            0            0    2210.1277    3692.9904    2954.5032   -210.16874    47.668139   -250.46375 
  133000    617.44194   -247.21571    2314.8034       21.977       21.977       21.977            0            0            0    2151.0055    2720.5714    2072.8332    289.38772    138.74077   -635.35763 
  133500     599.3066   -247.25166    2532.5086       21.977       21.977       21.977            0            0            0    3683.4154    1260.9763    2653.1342   -737.46786   -535.18525   -76.383992 
  134000    581.34768   -249.22323    1554.9914       21.977       21.977       21.977            0            0            0    1178.0754    2075.2763    1411.6225       247.56   -394.04091    530.63628 
  134500    560.12787   -246.99941    2086.1236       21.977       21.977       21.977            0            0            0    1322.3819    2330.6061    2605.3828   -1130.0197   -484.10239    383.94111 
  135000    601.06695   -249.97763    1323.1985       21.977       21.977       21.977            0            0            0    931.19435    2230.6562    807.74483   -980.48672   -588.17292   -353.44261 
  135500    600.12403   -247.66898    2106.6669       21.977       21.977       21.977            0            0            0    1587.6578    2141.3985    2590.9443   -430.10464    76.398506    568.01119 
  136000    635.10891   -248.26363    2247.8068       21.977       21.977       21.977            0            0            0    2506.2998     2147.896    2089.2246    -278.5525    320.04661     128.0231 
  136500    563.00673   -248.87867    1578.1962       21.977       21.977       21.977            0            0            0    1026.3616    1601.4467    2106.7803   -214.66812    135.54726   -418.29978 
  137000      615.743   -248.30321    1987.5705       21.977       21.977       21.977            0            0            0    1691.8554    2642.0163    1628.8399   -691.59914   -1656.5547    217.41922 
  137500     625.7757   -247.66954    2499.8553       21.977       21.977       21.977            0            0            0    2660.5409      2508.52    2330.5049    72.138297   -530.57419    5.8331717 
  138000    585.10913   -247.89841    1866.0876       21.977       21.977       21.977            0            0            0    2454.7619    759.04277    2384.4582   -441.08624    -599.4615   -765.81994 
  138500    603.39982    -248.3193    1986.6757       21.977       21.977       21.977            0            0            0    3007.3753    1442.7826    1509.8691   -252.21196    7.9602878  -0.49824404 
  139000    597.34208   -247.03865    2295.7018       21.977       21.977       21.977            0            0            0    3160.0001    2582.7671    1144.3383    350.01067    298.69235   -150.14472 
  139500    574.06929   -248.28831    1834.6632       21.977       21.977       21.977            0            0            0    1561.3064     2148.161    1794.5222     808.7887   -782.41564   -178.18556 
  140000    642.13766   -248.92862    1901.9907       21.977       21.977       21.977            0            0            0    1588.8133    1615.7204    2501.4385    157.80926    32.446572   -792.87998 
  140500    617.66817   -247.86687    2310.7824       21.977       21.977       21.977            0            0            0    3309.1137    1906.5691    1716.6643    86.001171     450.4692   -320.91271 
  141000    611.01213   -249.74111    1622.6696       21.977       21.977       21.977            0            0            0    1312.6891    1039.8342    2515.4855     672.2236   -43.989059   -270.97135 
  141500    563.18927   -247.86483    1880.2271       21.977       21.977       21.977            0            0            0    1429.0994    2121.7393    2089.8425   -425.60718    -505.2639    185.57389 
  142000    596.69873   -247.45334    2598.6602       21.977       21.977       21.977            0            0            0    2380.0379    2243.2677    3172.6749     301.4752   -33.645389    -87.89428 
  142500    596.67707    -248.1361    1991.8992       21.977       21.977       21.977            0            0            0    1654.2326    1976.9572    2344.5078   -545.18837   -290.24384   -366.08205 
  143000    606.88207   -248.37953    1948.2171       21.977       21.977       21.977            0            0            0    2260.1539     2618.913    965.58442   -655.55826   -43.646921    87.297706 
  143500    585.09681   -249.39786    1552.7921       21.977       21.977       21.977            0            0            0    1389.7488    1784.5952    1484.0323    -86.49933    939.14382    805.00191 
  144000    631.37979    -249.7917    1769.7241       21.977       21.977       21.977            0            0            0    1501.6711    1538.6622    2268.8392    184.80133    31.102924   -609.24595 
  144500    604.10592   -248.68331     1975.406       21.977       21.977       21.977            0            0            0     2013.886    1617.5509    2294.7811   -4.9566489    255.08343    127.36476 
  145000    616.36358   -249.06935     1948.622       21.977       21.977       21.977            0            0            0     1540.728    2350.5245    1954.6134    20.688952    518.36923   -38.014451 
  145500    621.30204   -248.19538    1951.1746       21.977       21.977       21.977            0            0            0    2536.0471    789.79096    2527.6857    627.90562    283.15921    469.39947 
  146000    578.94353   -249.40021    1589.9586       21.977       21.977       21.977            0            0            0    588.45471    2668.0243    1513.3968    194.60101   -494.24362    148.85518 
  146500    571.56914   -248.52417    1906.8821       21.977       21.977       21.977            0            0            0    2254.3635    1004.3612    2461.9215    -319.1251   -74.106684    -494.5699 
  147000     589.6743   -248.75884    1852.5463       21.977       21.977       21.977            0            0            0    1710.7685    2672.6218    1174.2486   -27.239942    110.70106    703.55386 
  147500    592.84525   -248.43893    1976.3175       21.977       21.977       21.977            0            0            0    1881.5129    1144.8331    2902.6065   -980.05093    251.51491   -272.32631 
  148000    548.31053   -247.23908    2215.0792       21.977       21.977       21.977            0            0            0    2409.3578    1757.3985    2478.4812    127.25096   -727.58062   -395.27576 
  148500    600.16072   -247.39673    2321.5361       21.977       21.977       21.977            0            0            0    2607.8532    1710.0253    2646.7299    509.16448    406.94813   -16.348056 
  149000    595.55925   -250.18562    1222.6561       21.977       21.977       21.977            0            0            0    784.57622    801.69309    2081.6989   -1061.7441     143.4416   -402.14966 
  149500    643.53666   -249.70107    1657.2906       21.977       21.977       21.977            0            0            0    1666.2006    1613.4122    1692.2591    -151.1369    80.780221   -1275.6074 
  150000    560.37612   -249.39871    1405.5807       21.977       21.977       21.977            0            0            0    1985.5456    762.96314    1468.2333   -283.56598   -443.02244    246.73357 
  150500    584.49303   -248.89549    1585.4975       21.977       21.977       21.977            0            0            0    1465.4057    1656.8506    1634.2362   -455.58288    364.71888   -163.01739 
  151000     607.0323   -248.91321    2012.2278       21.977       21.977       21.977            0            0            0    2513.3231    2339.4725    1183.8878    787.35503    321.04826    53.932363 
  151500    636.31608   -248.80315    1940.6048       21.977       21.977       21.977            0            0            0    2088.7826    1879.1625    1853.8692   -796.94729   -508.58497   -640.86952 
  152000    618.74835   -248.42434    2067.9007       21.977       21.977       21.977            0            0            0    762.34047    2146.6843    3294.6773    107.26862    1038.9589   -718.86796 
  152500    592.28855   -247.16636    2356.2123       21.977       21.977       21.977            0            0            0    2173.1459    3164.9462    1730.5447   -543.36347    478.20457   -1014.9052 
  153000     599.2336   -249.23553    1622.3654       21.977       21.977       21.977            0            0            0    1333.6341    2009.7609    1523.7012    363.58045    1273.9266   -412.25857 
  153500    599.27264   -247.81627    2102.4574       21.977       21.977       21.977            0            0            0    1883.8609    2408.7096    2014.8016    -1222.787    -163.9248    261.89097 
  154000    551.30516   -247.28731    2309.6305       21.977       21.977       21.977            0            0            0    1955.8057    1499.7545    3473.3312    472.68304   -352.67822    790.38974 
  154500    565.94397   -250.35024    1200.9448       21.977       21.977       21.977            0            0            0    452.78425    1541.1391     1608.911    105.87451   -996.89013     523.5643 
  155000    607.50643   -247.45953    2501.6251       21.977       21.977       21.977            0            0            0    2434.0054    2779.2945    2291.5754    91.336761     348.1283    157.85864 
  155500    615.06756   -248.12062    2119.9573       21.977       21.977       21.977            0            0            0     2077.787    1986.7834    2295.3014   -62.145096    182.41115    82.679632 
  156000    553.07837   -249.35586    1737.0242       21.977       21.977       21.977            0            0            0    1004.5183    1480.8466    2725.7078    549.25928   -7.5142704   -579.64116 
  156500    574.65244   -248.15466    1936.5828       21.977       21.977       21.977            0            0            0    2154.2355    1284.2811    2371.2318    153.06285    134.42168   -301.29291 
  157000    601.15132    -249.4305    1556.0746       21.977       21.977       21.977            0            0            0    1774.9808    512.60019    2380.6427   -377.90847   -16.035521    128.49472 
  157500    711.46308   -249.48785    1803.2721       21.977       21.977       21.977            0            0            0    1232.1148    1784.8398    2392.8617    235.49421    396.89054    92.235228 
  158000    597.87693   -249.17536    1697.8836       21.977       21.977       21.977            0            0            0    941.15263    1860.8922     2291.606    395.22636    1230.4686   -203.50795 
  158500    573.06935   -248.99647    1330.3759       21.977       21.977       21.977            0            0            0    1909.6247    2437.9806   -356.47756   -20.739729    291.00532    4.0643626 
  159000    709.04901   -248.59094    2368.1933       21.977       21.977       21.977            0            0            0    2148.5427    2229.6495    2726.3876    -580.9036    518.86677   -463.63129 
  159500     545.4049   -247.04089    2299.5307       21.977       21.977       21.977            0            0            0    2583.9981    2086.8364    2227.7574   -154.11983   -56.225559   -31.980036 
  160000    550.50311   -248.88262    1707.0684       21.977       21.977       21.977            0            0            0    1227.7738    1988.2438    1905.1875    214.87671    111.14907    546.75263 
  160500    581.95513    -249.1455    1843.5175       21.977       21.977       21.977            0            0            0    3275.1291    714.24537    1541.1779   -679.55654    300.63057    623.78245 
  161000    592.83779   -247.29584    2502.5443       21.977       21.977       21.977            0            0            0    3383.0023    2426.1359    1698.4946    365.28839    375.95753   -18.393585 
  161500    652.86096   -247.51341    2408.6135       21.977       21.977       21.977            0            0            0    2565.3657    1870.6728     2789.802   -196.69455   -396.93123    182.38737 
  162000    572.60645   -246.91802     2373.995       21.977       21.977       21.977            0            0            0    2852.7301    1347.5844    2921.6704   -426.83108    435.19567   -74.175945 
  162500    626.09112   -248.97904    2014.4963       21.977       21.977       21.977            0            0            0    998.34216    2568.2067    2476.9401    828.27042   -773.05218   -209.96186 
  163000    631.53411   -249.42618    1635.2741       21.977       21.977       21.977            0            0            0    1961.4208    614.83492    2329.5666    123.20839   -287.36844    159.35427 
  163500    609.73992   -248.34917      2087.48       21.977       21.977       21.977            0            0            0    2294.6496    1996.9698    1970.8207    858.94411     152.4904    267.05452 
  164000    572.54894   -247.65949    1827.8431       21.977       21.977       21.977            0            0            0    1607.3792    1383.3372     2492.813   -64.772322   -38.587236    679.56032 
  164500    608.75799   -250.01393    1559.6982       21.977       21.977       21.977            0            0            0    1573.1896    1429.5668    1676.3382    556.80093    615.31517    201.07256 
  165000    596.76969   -249.02872    1710.7241       21.977       21.977       21.977            0            0            0    1482.3389    1086.2349    2563.5985    226.57303    705.69615    757.90861 
  165500    600.15697   -249.13022    1956.5275       21.977       21.977       21.977            0            0            0    2186.0352    1705.7285    1977.8188    268.61439   -286.67659    460.40917 
  166000    653.47775   -246.80782     2447.679       21.977       21.977       21.977            0            0            0    2914.5283    3163.8945     1264.614    547.27774   -28.294135   -231.69476 
  166500    570.15294   -249.79863    1314.4815       21.977       21.977       21.977            0            0            0    1679.4518   -52.906005    2316.8988    850.71716    612.06874    224.57341 
  167000    548.55768   -248.17099    1928.1375       21.977       21.977       21.977            0            0            0    563.07132      2790.94    2430.4011   -633.33752   -219.38244    727.13222 
  167500    607.37234    -247.1197    2446.3653       21.977       21.977       21.977            0            0            0    2636.0757    2905.5394    1797.4807    747.22325    592.00093   -80.675798 
  168000    599.81639    -247.6552    1985.4113       21.977       21.977       21.977            0            0            0    2865.0449     1110.394    1980.7949    287.62059   -28.038416    -467.5613 
  168500    621.73043   -248.09934    2029.5377       21.977       21.977       21.977            0            0            0     2427.109    2380.0247    1281.4795   -1260.8254     892.9166   -149.78502 
  169000    613.54062   -249.62856    1503.5987       21.977       21.977       21.977            0            0            0    1549.0173    1712.6747    1249.1041   -517.65124    337.03912   -437.85437 
  169500    601.29244   -247.69118    2508.0836       21.977       21.977       21.977            0            0            0    3050.8866    1959.5757    2513.7885     222.6863    744.10972   -510.43405 
  170000    608.47267   -248.28264    2008.3598       21.977       21.977       21.977            0            0            0    2538.0453    1967.7884    1519.2459   -123.62256   -82.536894    173.25105 
  170500    547.81227    -247.8537    1986.3944       21.977       21.977       21.977            0            0            0    2005.6295    2456.4695    1497.0841    649.19738   -1160.4731    417.54349 
  171000    609.98118    -246.1436    2343.3846       21.977       21.977       21.977            0            0            0    1250.4971    2467.4292    3312.2277     411.0377   -757.43379     448.9816 
  171500    656.61058   -248.39158    2327.3723       21.977       21.977       21.977            0            0            0    2697.6607      2245.04    2039.4163    698.46721    381.43395   -50.282352 
  172000    584.60093   -247.99549    1820.5614       21.977       21.977       21.977            0            0            0    1707.4427    1445.5109    2308.7307   -787.29057    212.48029    333.34856 
  172500     570.5844   -248.51428    1871.1427       21.977       21.977       21.977            0            0            0    2012.5735    1917.4387     1683.416    828.65343   -1161.2457    280.96798 
  173000    587.32422   -248.27502    1991.4967       21.977       21.977       21.977            0            0            0    2346.3626    1359.5128    2268.6147   -472.88774   -414.91415   -245.49041 
  173500    667.39647   -248.92191    1872.5185       21.977       21.977       21.977            0            0            0     2199.916    1713.0116    1704.6278    -519.4244   -309.17113   -141.80263 
  174000    613.14033   -248.52632    1734.8895       21.977       21.977       21.977            0            0            0    1860.3059    1830.3208    1514.0419    15.847735    51.171297   -493.62468 
  174500    599.22616   -247.28499      2491.85       21.977       21.977       21.977            0            0            0    2121.4263    3612.5993    1741.5243   -301.09032    357.96318    459.22858 
  175000    620.25361   -249.74854    1460.0242       21.977       21.977       21.977            0            0            0    1528.9483    1045.3794    1805.7449    -536.4887   -892.65401    183.14668 
  175500    574.13476   -249.09823    1889.2698       21.977       21.977       21.977            0            0            0    2707.1876     1483.016    1477.6058   -97.352634   -1159.5957    331.62075 
  176000    575.33505   -247.28735    2344.4489       21.977       21.977       21.977            0            0            0    2033.1524    2063.8147    2936.3796   -170.37812    860.36459    1086.0454 
  176500    623.63114    -248.7796    1776.6978       21.977       21.977       21.977            0            0            0    2263.9151     1614.884    1451.2945   -270.82356   -283.51382   -137.46638 
  177000    592.97808   -249.28353    1657.0869       21.977       21.977       21.977            0            0            0    1488.5389    1390.0319    2092.6898    936.13205    51.330717    426.37078 
  177500    587.62039   -248.66025    1897.3617       21.977       21.977       21.977            0            0            0    1797.8424    1537.5553    2356.6873    1011.0487    284.26687   -516.31196 
  178000    557.94496   -246.24448     2439.428       21.977       21.977       21.977            0            0            0    3065.0755    2677.4542    1575.7544   -288.80945   -1443.0103    115.48365 
  178500     582.6352   -247.82444    2027.5605       21.977       21.977       21.977            0            0            0    899.39812    2414.7154    2768.5679   -252.64065    60.262987   -266.41019 
  179000    632.60882   -248.62586    2116.4484       21.977       21.977       21.977            0            0            0    1958.4286    3125.8855    1265.0312   -275.40227   -466.22891   -909.20967 
  179500    631.09926   -247.80894    2169.9263       21.977       21.977       21.977            0            0            0    1588.4984    2291.7717    2629.5088    -60.42841   -105.53963    423.24812 
[...]
  454500    646.28048   -248.32301     2292.255       21.977       21.977       21.977            0            0            0    2966.4921    1966.2425    1944.0304   -74.689462   -85.038363    313.03549 
  455000    631.20828   -247.42263    2500.7194       21.977       21.977       21.977            0            0            0    3484.2602    1833.6753    2184.2228   -252.06033    1037.1048    79.634809 
  455500    547.80834     -246.598    2484.5426       21.977       21.977       21.977            0            0            0    1989.4141    3071.9753    2392.2384    674.58065    516.67486    727.32429 
  456000    521.91712    -247.0129    2426.1704       21.977       21.977       21.977            0            0            0    2855.6019    2013.7597    2409.1496    313.00392   -293.23117   -472.82237 
  456500    574.38474   -250.07294    1471.0538       21.977       21.977       21.977            0            0            0    1900.0763    846.49018     1666.595    -533.4191   -392.60057   -93.309363 
  457000    550.63727   -249.42356    1570.4418       21.977       21.977       21.977            0            0            0    1844.5852    1164.9303      1701.81   -66.998829    -656.3552    799.00237 
  457500    537.26872   -249.10199    1421.8817       21.977       21.977       21.977            0            0            0    278.72992    2708.6373    1278.2779   -439.59591    59.244619    670.23984 
  458000    610.09232   -250.23226    1405.5867       21.977       21.977       21.977            0            0            0     978.7966    1497.5274    1740.4362   -41.960957    754.04964   -812.22375 
  458500    552.51545   -249.77367    1225.6263       21.977       21.977       21.977            0            0            0    1606.5291    474.17587     1596.174   -874.32082    206.17738    357.99055 
  459000    648.97372   -247.13021    2160.4612       21.977       21.977       21.977            0            0            0    1649.7986    2379.4899    2452.0952    249.73752    -336.8887    360.52306 
  459500    601.07431   -248.82857    1793.6308       21.977       21.977       21.977            0            0            0    2852.6354    621.72385    1906.5331   -442.54089   -249.82273   -329.45162 
  460000    611.35174   -248.33586    2115.5772       21.977       21.977       21.977            0            0            0    1597.6894    2473.6926    2275.3496    474.67471   -475.25473    537.40759 
  460500    566.88436   -248.07669    2067.9744       21.977       21.977       21.977            0            0            0    2324.8365    1389.3133    2489.7734   -398.55598    299.02258     19.17981 
  461000     706.6739   -247.88791    2214.2619       21.977       21.977       21.977            0            0            0    2027.4384    1592.0003    3023.3469    198.99308    594.15492    247.26677 
  461500     628.1196   -247.36339     2030.489       21.977       21.977       21.977            0            0            0    1715.9071    3081.4501    1294.1099    139.20684    580.12744     177.4382 
  462000    648.94704    -247.5074    2752.6097       21.977       21.977       21.977            0            0            0    2475.3006     2314.484    3468.0447    528.29897   -85.164308    707.41071 
  462500    587.39502   -249.48647    1560.2504       21.977       21.977       21.977            0            0            0    2747.0452    558.39685     1375.309    597.63189   -184.28342   -12.855224 
  463000    566.05664   -246.00507    2873.3329       21.977       21.977       21.977            0            0            0    3476.4375    2928.9168    2214.6444    872.57613   -475.53947    48.615127 
  463500    606.73839   -247.84442    1978.7292       21.977       21.977       21.977            0            0            0    1996.9429    2068.8023    1870.4425    552.48203   -324.57728    80.223535 
  464000    632.01605   -249.03177    1679.4302       21.977       21.977       21.977            0            0            0    1364.1496    1911.6433    1762.4976  -0.22577989   -335.70873    526.46784 
  464500    572.35726   -246.57855    2503.2343       21.977       21.977       21.977            0            0            0    2615.8177    2643.3957    2250.4895   -275.49721    912.50588    134.51987 
  465000    595.37767   -246.37435    2588.2908       21.977       21.977       21.977            0            0            0    3728.3679    1566.9507    2469.5538    188.76945    734.29005   -369.62988 
  465500    615.61333   -249.35402    1731.5657       21.977       21.977       21.977            0            0            0    1105.9505    2368.9366    1719.8101    800.00007   -6.5055233    386.88875 
  466000    592.16717   -248.41791    1689.1096       21.977       21.977       21.977            0            0            0     2611.551    292.52127    2163.2565   -959.02845   -180.00892   -161.18727 
  466500    553.44838     -247.659    2035.9342       21.977       21.977       21.977            0            0            0    1853.5583    2335.5439    1918.7003   -193.52179    772.38815    434.10046 
  467000    608.49622   -247.10344    2396.1411       21.977       21.977       21.977            0            0            0    2919.7941    1631.7117    2636.9176    547.96982    364.79144    359.16464 
  467500    592.59103   -248.68693    1846.7117       21.977       21.977       21.977            0            0            0    1429.4161    1075.0379     3035.681    384.70849   -554.76577   -187.30918 
  468000    548.39403    -248.4039    1573.2189       21.977       21.977       21.977            0            0            0    2612.9163      1481.51     625.2305    -453.9686    395.70244   -473.24049 
  468500    570.66311   -248.97703    1344.0288       21.977       21.977       21.977            0            0            0    1557.8543    1864.1969     610.0352   -608.48397   -70.894438    752.76597 
  469000    571.98304   -248.67002    2009.2473       21.977       21.977       21.977            0            0            0    2899.4645    1263.6064    1864.6709    68.392088    393.06337    152.66019 
  469500    589.63532   -249.27119    1757.6241       21.977       21.977       21.977            0            0            0    1524.1462    1893.8298    1854.8963    613.90889   -1033.0175   -381.66264 
  470000    540.77169   -248.87411    1539.1524       21.977       21.977       21.977            0            0            0    2386.1621    676.36219    1554.9329   -1175.0601    788.95147    213.88847 
  470500    556.42596    -249.4912    1355.0878       21.977       21.977       21.977            0            0            0    1764.7897    1521.4492    779.02467   -794.18475    537.18668    342.60379 
  471000     632.0678   -248.58001     1982.396       21.977       21.977       21.977            0            0            0    2938.9247    1819.7318    1188.5316   -33.076558    -1315.562    503.86599 
  471500    600.10913   -247.00499    2232.4721       21.977       21.977       21.977            0            0            0    1736.4048    2501.4955    2459.5161   -324.13904   -322.77838    572.54443 
  472000    601.19612   -249.96164    1283.2265       21.977       21.977       21.977            0            0            0    770.91348    1936.9209    1141.8451   -34.449765    257.89144    652.04069 
  472500    576.75544   -248.01061    1954.6723       21.977       21.977       21.977            0            0            0    1362.1504    1981.8341    2520.0324    245.19705    -120.0482    121.55894 
  473000     594.7112   -248.91773    1818.9779       21.977       21.977       21.977            0            0            0    2249.7088    1212.0115    1995.2134    206.73055   -297.68281     608.8107 
  473500    549.97345   -247.23304    2328.8365       21.977       21.977       21.977            0            0            0    2192.8024    2932.0563    1861.6509    233.70339   -132.11165   -74.129193 
  474000    588.09591   -247.56921    2077.0653       21.977       21.977       21.977            0            0            0    2383.2434     2040.177    1807.7754   -350.30805   -370.39611    -491.5125 
  474500    633.47002   -248.13295    1991.1112       21.977       21.977       21.977            0            0            0    1920.7481      1209.17    2843.4155    -343.4445   -211.94603   -529.39486 
  475000    565.38864   -249.70732    1402.9631       21.977       21.977       21.977            0            0            0    1471.1615    1588.4768     1149.251    -763.8644    180.12198    -553.5749 
  475500    639.35353   -248.05931    2147.4664       21.977       21.977       21.977            0            0            0    2022.7804    1881.3734    2538.2456   -590.83989    976.35291   -882.93878 
  476000    553.98436   -249.58545    1503.3694       21.977       21.977       21.977            0            0            0    1637.2523    1269.9975    1602.8583   -36.236395   -61.703099   -205.51097 
  476500    568.32144    -249.6968     1469.694       21.977       21.977       21.977            0            0            0    2479.5189    793.60358    1135.9597    38.224614   -857.32719      230.016 
  477000    587.25169   -247.94052    2242.8117       21.977       21.977       21.977            0            0            0    2838.6312    1672.0175    2217.7865    38.147013   -750.98588   -211.11873 
  477500    600.39144   -249.75616    1565.8499       21.977       21.977       21.977            0            0            0    1534.4654    1215.8936    1947.1906    163.10897    202.62964   -245.88476 
  478000    645.03766   -247.49805    2220.7111       21.977       21.977       21.977            0            0            0    2715.3246    2124.0627    1822.7459   -262.38028   -157.34212   -894.74392 
  478500    624.16246   -247.80389    2166.8553       21.977       21.977       21.977            0            0            0    3878.1748    1146.0306    1476.3605    12.619849    1276.1864    117.29681 
  479000     594.0314   -248.14123    2141.4563       21.977       21.977       21.977            0            0            0    2795.8385     1271.908    2356.6224    74.096909    84.739664    -168.3613 
  479500    620.17255   -250.24545    1247.5693       21.977       21.977       21.977            0            0            0    1076.6612    887.18711    1778.8595    388.01786    450.83426   -584.01723 
  480000    650.44928   -248.20393    2104.5571       21.977       21.977       21.977            0            0            0    2322.4816    1813.6202    2177.5694     769.1451     441.1949   -767.22153 
  480500    602.77262   -247.74705    2331.5522       21.977       21.977       21.977            0            0            0    3572.9594    2055.0422    1366.6549   -679.34362   -372.65504    706.59039 
  481000    605.03841   -247.09896    2512.9433       21.977       21.977       21.977            0            0            0    2390.6528    2019.3252     3128.852   -995.93794    181.41977    16.013282 
  481500    592.04144   -248.65082    1618.0191       21.977       21.977       21.977            0            0            0    3178.1518    220.51471    1455.3909   -686.31379   -530.68736    230.06871 
  482000    547.06955   -249.83879    1295.9432       21.977       21.977       21.977            0            0            0    758.10799    2617.9925    511.72908   -779.30117   -627.06366   -250.34339 
  482500    608.55493   -249.73836    1574.8429       21.977       21.977       21.977            0            0            0    1932.7604    1865.8591    925.90929   -323.45181    629.54612   -44.635171 
  483000    615.79965   -249.13907    1924.9341       21.977       21.977       21.977            0            0            0    2233.9234     1744.711    1796.1678   -365.52927     370.9336    52.506033 
  483500    595.31965   -245.82591    2671.8709       21.977       21.977       21.977            0            0            0    2529.9454    2343.3159    3142.3514    1178.1435   -670.59491   -431.79135 
  484000    567.32686   -248.98332    1803.5774       21.977       21.977       21.977            0            0            0    2315.8566    2391.4341    703.44145   -1059.3583     39.28525    -88.23826 
  484500    610.83923   -246.67374    2541.5812       21.977       21.977       21.977            0            0            0    3584.4133     1737.921    2302.4093   -93.768018    65.668994    72.944194 
  485000    582.25048   -248.02764     1935.519       21.977       21.977       21.977            0            0            0    2283.0693    2378.9676    1144.5199    -1168.356   -1059.7456   -171.45761 
  485500    631.02028   -247.78513    2014.4033       21.977       21.977       21.977            0            0            0    2048.0727    1695.9368    2299.2003    176.66907    715.86608   -225.78055 
  486000    601.08999   -248.58499    1748.3061       21.977       21.977       21.977            0            0            0    1762.8706    2067.4285    1414.6191   -734.53632    155.44271    502.85948 
  486500     654.7948   -249.42622    1701.2798       21.977       21.977       21.977            0            0            0    1928.6101    1291.5725    1883.6567    273.56981   -687.80894   -1248.1015 
  487000    619.67514   -246.33034    2477.6614       21.977       21.977       21.977            0            0            0    2336.0442    2926.4326    2170.5073    63.652146    669.00455    763.50939 
  487500    561.23372   -249.03044    1457.4643       21.977       21.977       21.977            0            0            0    1200.8132    1875.2863    1296.2934   -446.59157   -875.66258    -13.94708 
  488000    601.43852   -248.53886    2020.2851       21.977       21.977       21.977            0            0            0    2452.5015    1703.4903    1904.8635    153.25831    1029.5803   -82.664884 
  488500    633.48256    -247.3532    2341.0013       21.977       21.977       21.977            0            0            0    1583.8621    2423.2704    3015.8715    1390.3219    784.36233    -318.2555 
  489000    605.85585   -246.51183       2693.4       21.977       21.977       21.977            0            0            0    2747.2681    2994.0942    2338.8377   -512.32894   -71.924489   -801.27488 
  489500     627.9966   -248.60099    2025.2319       21.977       21.977       21.977            0            0            0    1787.4265    3031.6844    1256.5849   -387.17064    603.39214   -77.404995 
  490000    588.65852   -250.02594    1242.6424       21.977       21.977       21.977            0            0            0    1373.4597    1728.2225    626.24494     520.7402    7.0888373   -294.68092 
  490500    574.80658   -248.18268    1951.9182       21.977       21.977       21.977            0            0            0    2077.7714    1262.3823    2515.6009    222.85906    283.89261   -422.02478 
  491000    628.37125   -248.34579    2116.3062       21.977       21.977       21.977            0            0            0    2127.4039    1782.2765    2439.2383    -747.4054     272.1684   -160.52537 
  491500     562.0262   -247.93787    2060.3476       21.977       21.977       21.977            0            0            0    2806.6604    1579.3654     1795.017    227.20901    7.8136761   -424.51151 
  492000    664.50277   -248.98055    2018.4379       21.977       21.977       21.977            0            0            0    2425.5284    2016.5093    1613.2761    182.79561   -678.15175   -772.24986 
  492500    632.97405   -248.59356    2139.0679       21.977       21.977       21.977            0            0            0    2927.4153    1927.3917    1562.3968    264.00514   -745.19938   -353.18756 
  493000     566.6302   -249.46082    1443.8807       21.977       21.977       21.977            0            0            0    2174.4315    1504.2909    652.91958   -226.11567    239.63295    607.96585 
  493500    603.28102   -248.83297    1517.0302       21.977       21.977       21.977            0            0            0    2313.9368    940.23829    1296.9156    31.266717   -142.48732    271.34553 
  494000     655.6505   -248.13739    2238.8337       21.977       21.977       21.977            0            0            0    2479.4197    1893.8599    2343.2215   -523.62194    851.83836    231.60264 
  494500    594.26073   -248.26555    2095.8065       21.977       21.977       21.977            0            0            0    2787.0913    1861.7325    1638.5958    40.281269    236.60232    114.77906 
  495000    608.16435   -249.12056    1734.2531       21.977       21.977       21.977            0            0            0    1936.8473     724.4979     2541.414    690.12821   -793.62674     400.8644 
  495500    609.28682   -247.48244    2510.2574       21.977       21.977       21.977            0            0            0    2623.9396    2597.3651    2309.4676   -114.65747     365.2513   -515.45392 
  496000    541.86922    -248.4872    1783.7437       21.977       21.977       21.977            0            0            0      1655.86    1873.8734    1821.4977    176.06298    91.704128    -227.7504 
  496500    570.26599   -248.80114    1829.6504       21.977       21.977       21.977            0            0            0    2199.7915    1261.9879    2027.1719   -334.09217   -66.011683    192.07362 
  497000    589.41464   -248.54151     1815.221       21.977       21.977       21.977            0            0            0     2188.332    1761.4581    1495.8728   -269.33624   -457.59004   -227.28012 
  497500    629.23488   -246.85001    2489.8776       21.977       21.977       21.977            0            0            0    3350.1943    1877.2363    2242.2022   -317.13224   -50.882759   -313.87933 
  498000     591.5295   -247.65941    2260.1348       21.977       21.977       21.977            0            0            0     2712.508    993.17556    3074.7208   -396.47111    487.22193    253.87292 
  498500     620.8165   -247.64784    2375.6647       21.977       21.977       21.977            0            0            0     2564.679    2454.9239    2107.3913     633.1622    125.63847    75.726237 
  499000    603.20668   -248.41735     1688.934       21.977       21.977       21.977            0            0            0    1924.9844    963.46855     2178.349   -111.37037    411.80122     639.7398 
  499500    653.13508   -250.87454    1326.9929       21.977       21.977       21.977            0            0            0    1902.4637    1349.6544    728.86063   -526.64598   -396.07488   -311.03269 
  500000    606.73819   -249.00404    2044.1209       21.977       21.977       21.977            0            0            0    2277.3871    1798.9161    2056.0596    305.09584   -842.94779    661.28996 
Loop time of 395.991 on 2 procs for 500000 steps with 250 atoms

Performance: 218.187 ns/day, 0.110 hours/ns, 1262.654 timesteps/s
94.9% CPU use with 2 MPI tasks x no OpenMP threads

MPI task timing breakdown:
Section |  min time  |  avg time  |  max time  |%varavg| %total
---------------------------------------------------------------
Pair    | 295.01     | 312.29     | 329.57     |  97.8 | 78.86
Neigh   | 6.2901     | 6.486      | 6.6818     |   7.7 |  1.64
Comm    | 12.146     | 29.619     | 47.092     | 321.1 |  7.48
Output  | 39.805     | 39.808     | 39.812     |   0.1 | 10.05
Modify  | 6.6375     | 6.6601     | 6.6826     |   0.9 |  1.68
Other   |            | 1.127      |            |       |  0.28

Nlocal:    125 ave 128 max 122 min
Histogram: 1 0 0 0 0 0 0 0 0 1
Nghost:    1418 ave 1430 max 1406 min
Histogram: 1 0 0 0 0 0 0 0 0 1
Neighs:    8633.5 ave 8904 max 8363 min
Histogram: 1 0 0 0 0 0 0 0 0 1

Total # of neighbors = 17267
Ave neighs/atom = 69.068
Neighbor list builds = 17064
Dangerous builds = 0

Total wall time: 0:06:39
